TITLE = "2hz_0001"
VARIABLES = "x [mm]", "y [mm]", "Velocity u [m/s]", "Velocity v [m/s]", "isValid", "filter length"
ZONE T="Frame 0", I=258, J=152, F=POINT
STRANDID=1, SOLUTIONTIME=24.69999551
-53.5761 46.1179 0 0 0 31
-53.0885 46.1179 0 0 0 31
-52.6009 46.1179 0 0 0 31
-52.1133 46.1179 0 0 0 31
-51.6257 46.1179 0 0 0 31
-51.1381 46.1179 0 0 0 31
-50.6505 46.1179 0 0 0 31
-50.1629 46.1179 0 0 0 31
-49.6752 46.1179 0 0 0 31
-49.1876 46.1179 0 0 0 31
-48.7 46.1179 0 0 0 31
-48.2124 46.1179 0 0 0 31
-47.7248 46.1179 0 0 0 31
-47.2372 46.1179 0 0 0 31
-46.7496 46.1179 0 0 0 31
-46.262 46.1179 0 0 0 31
-45.7744 46.1179 0 0 0 31
-45.2868 46.1179 0 0 0 31
-44.7992 46.1179 0 0 0 31
-44.3116 46.1179 0 0 0 31
-43.824 46.1179 0 0 0 31
-43.3364 46.1179 0 0 0 31
-42.8488 46.1179 0 0 0 31
-42.3611 46.1179 0 0 0 31
-41.8735 46.1179 0 0 0 31
-41.3859 46.1179 0 0 0 31
-40.8983 46.1179 0 0 0 31
-40.4107 46.1179 0 0 0 31
-39.9231 46.1179 0 0 0 31
-39.4355 46.1179 0 0 0 31
-38.9479 46.1179 0 0 0 31
-38.4603 46.1179 0 0 0 31
-37.9727 46.1179 0 0 0 31
-37.4851 46.1179 0 0 0 31
-36.9975 46.1179 0 0 0 31
-36.5099 46.1179 0 0 0 31
-36.0223 46.1179 0 0 0 31
-35.5347 46.1179 0 0 0 31
-35.0471 46.1179 0 0 0 31
-34.5594 46.1179 0 0 0 31
-34.0718 46.1179 0 0 0 31
-33.5842 46.1179 0 0 0 31
-33.0966 46.1179 0 0 0 31
-32.609 46.1179 0 0 0 31
-32.1214 46.1179 0 0 0 31
-31.6338 46.1179 0 0 0 31
-31.1462 46.1179 0 0 0 31
-30.6586 46.1179 0 0 0 31
-30.171 46.1179 0 0 0 31
-29.6834 46.1179 0 0 0 31
-29.1958 46.1179 0 0 0 31
-28.7082 46.1179 0 0 0 31
-28.2206 46.1179 0 0 0 31
-27.733 46.1179 0 0 0 31
-27.2454 46.1179 0 0 0 31
-26.7577 46.1179 0 0 0 31
-26.2701 46.1179 0 0 0 31
-25.7825 46.1179 0 0 0 31
-25.2949 46.1179 0 0 0 31
-24.8073 46.1179 0 0 0 31
-24.3197 46.1179 0 0 0 31
-23.8321 46.1179 0 0 0 31
-23.3445 46.1179 0 0 0 31
-22.8569 46.1179 0 0 0 31
-22.3693 46.1179 0 0 0 31
-21.8817 46.1179 0 0 0 31
-21.3941 46.1179 0 0 0 31
-20.9065 46.1179 0 0 0 31
-20.4189 46.1179 0 0 0 31
-19.9313 46.1179 0 0 0 31
-19.4436 46.1179 0 0 0 31
-18.956 46.1179 0 0 0 31
-18.4684 46.1179 0 0 0 31
-17.9808 46.1179 0 0 0 31
-17.4932 46.1179 0 0 0 31
-17.0056 46.1179 0 0 0 31
-16.518 46.1179 0 0 0 31
-16.0304 46.1179 0 0 0 31
-15.5428 46.1179 0 0 0 31
-15.0552 46.1179 0 0 0 31
-14.5676 46.1179 0 0 0 31
-14.08 46.1179 0 0 0 31
-13.5924 46.1179 0 0 0 31
-13.1048 46.1179 0 0 0 31
-12.6172 46.1179 0 0 0 31
-12.1296 46.1179 0 0 0 31
-11.6419 46.1179 0 0 0 31
-11.1543 46.1179 0 0 0 31
-10.6667 46.1179 0 0 0 31
-10.1791 46.1179 0 0 0 31
-9.69152 46.1179 0 0 0 31
-9.20391 46.1179 0 0 0 31
-8.71631 46.1179 0 0 0 31
-8.2287 46.1179 0 0 0 31
-7.7411 46.1179 0 0 0 31
-7.25349 46.1179 0 0 0 31
-6.76588 46.1179 0 0 0 31
-6.27828 46.1179 0 0 0 31
-5.79067 46.1179 0 0 0 31
-5.30306 46.1179 0 0 0 31
-4.81546 46.1179 0 0 0 31
-4.32785 46.1179 0 0 0 31
-3.84024 46.1179 0 0 0 31
-3.35264 46.1179 0 0 0 31
-2.86503 46.1179 0 0 0 31
-2.37742 46.1179 0 0 0 31
-1.88982 46.1179 0 0 0 31
-1.40221 46.1179 0 0 0 31
-0.914606 46.1179 0 0 0 31
-0.426999 46.1179 0 0 0 31
0.0606072 46.1179 0 0 0 31
0.548214 46.1179 0 0 0 31
1.03582 46.1179 0 0 0 31
1.52343 46.1179 0 0 0 31
2.01103 46.1179 0 0 0 31
2.49864 46.1179 0 0 0 31
2.98625 46.1179 0 0 0 31
3.47385 46.1179 0 0 0 31
3.96146 46.1179 0 0 0 31
4.44906 46.1179 0 0 0 31
4.93667 46.1179 0 0 0 31
5.42428 46.1179 0 0 0 31
5.91188 46.1179 0 0 0 31
6.39949 46.1179 0 0 0 31
6.8871 46.1179 0 0 0 31
7.3747 46.1179 0 0 0 31
7.86231 46.1179 0 0 0 31
8.34992 46.1179 0 0 0 31
8.83752 46.1179 0 0 0 31
9.32513 46.1179 0 0 0 31
9.81274 46.1179 0 0 0 31
10.3003 46.1179 0 0 0 31
10.7879 46.1179 0 0 0 31
11.2756 46.1179 0 0 0 31
11.7632 46.1179 0 0 0 31
12.2508 46.1179 0 0 0 31
12.7384 46.1179 0 0 0 31
13.226 46.1179 0 0 0 31
13.7136 46.1179 0 0 0 31
14.2012 46.1179 0 0 0 31
14.6888 46.1179 0 0 0 31
15.1764 46.1179 0 0 0 31
15.664 46.1179 0 0 0 31
16.1516 46.1179 0 0 0 31
16.6392 46.1179 0 0 0 31
17.1268 46.1179 0 0 0 31
17.6144 46.1179 0 0 0 31
18.102 46.1179 0 0 0 31
18.5897 46.1179 0 0 0 31
19.0773 46.1179 0 0 0 31
19.5649 46.1179 0 0 0 31
20.0525 46.1179 0 0 0 31
20.5401 46.1179 0 0 0 31
21.0277 46.1179 0 0 0 31
21.5153 46.1179 0 0 0 31
22.0029 46.1179 0 0 0 31
22.4905 46.1179 0 0 0 31
22.9781 46.1179 0 0 0 31
23.4657 46.1179 0 0 0 31
23.9533 46.1179 0 0 0 31
24.4409 46.1179 0 0 0 31
24.9285 46.1179 0 0 0 31
25.4161 46.1179 0 0 0 31
25.9037 46.1179 0 0 0 31
26.3914 46.1179 0 0 0 31
26.879 46.1179 0 0 0 31
27.3666 46.1179 0 0 0 31
27.8542 46.1179 0 0 0 31
28.3418 46.1179 0 0 0 31
28.8294 46.1179 0 0 0 31
29.317 46.1179 0 0 0 31
29.8046 46.1179 0 0 0 31
30.2922 46.1179 0 0 0 31
30.7798 46.1179 0 0 0 31
31.2674 46.1179 0 0 0 31
31.755 46.1179 0 0 0 31
32.2426 46.1179 0 0 0 31
32.7302 46.1179 0 0 0 31
33.2178 46.1179 0 0 0 31
33.7054 46.1179 0 0 0 31
34.1931 46.1179 0 0 0 31
34.6807 46.1179 0 0 0 31
35.1683 46.1179 0 0 0 31
35.6559 46.1179 0 0 0 31
36.1435 46.1179 0 0 0 31
36.6311 46.1179 0 0 0 31
37.1187 46.1179 0 0 0 31
37.6063 46.1179 0 0 0 31
38.0939 46.1179 0 0 0 31
38.5815 46.1179 0 0 0 31
39.0691 46.1179 0 0 0 31
39.5567 46.1179 0 0 0 31
40.0443 46.1179 0 0 0 31
40.5319 46.1179 0 0 0 31
41.0195 46.1179 0 0 0 31
41.5072 46.1179 0 0 0 31
41.9948 46.1179 0 0 0 31
42.4824 46.1179 0 0 0 31
42.97 46.1179 0 0 0 31
43.4576 46.1179 0 0 0 31
43.9452 46.1179 0 0 0 31
44.4328 46.1179 0 0 0 31
44.9204 46.1179 0 0 0 31
45.408 46.1179 0 0 0 31
45.8956 46.1179 0 0 0 31
46.3832 46.1179 0 0 0 31
46.8708 46.1179 0 0 0 31
47.3584 46.1179 0 0 0 31
47.846 46.1179 0 0 0 31
48.3336 46.1179 0 0 0 31
48.8212 46.1179 0 0 0 31
49.3089 46.1179 0 0 0 31
49.7965 46.1179 0 0 0 31
50.2841 46.1179 0 0 0 31
50.7717 46.1179 0 0 0 31
51.2593 46.1179 0 0 0 31
51.7469 46.1179 0 0 0 31
52.2345 46.1179 0 0 0 31
52.7221 46.1179 0 0 0 31
53.2097 46.1179 0 0 0 31
53.6973 46.1179 0 0 0 31
54.1849 46.1179 0 0 0 31
54.6725 46.1179 0 0 0 31
55.1601 46.1179 0 0 0 31
55.6477 46.1179 0 0 0 31
56.1353 46.1179 0 0 0 31
56.6229 46.1179 0 0 0 31
57.1106 46.1179 0 0 0 31
57.5982 46.1179 0 0 0 31
58.0858 46.1179 0 0 0 31
58.5734 46.1179 0 0 0 31
59.061 46.1179 0 0 0 31
59.5486 46.1179 0 0 0 31
60.0362 46.1179 0 0 0 31
60.5238 46.1179 0 0 0 31
61.0114 46.1179 0 0 0 31
61.499 46.1179 0 0 0 31
61.9866 46.1179 0 0 0 31
62.4742 46.1179 0 0 0 31
62.9618 46.1179 0 0 0 31
63.4494 46.1179 0 0 0 31
63.937 46.1179 0 0 0 31
64.4247 46.1179 0 0 0 31
64.9123 46.1179 0 0 0 31
65.3999 46.1179 0 0 0 31
65.8875 46.1179 0 0 0 31
66.3751 46.1179 0 0 0 31
66.8627 46.1179 0 0 0 31
67.3503 46.1179 0 0 0 31
67.8379 46.1179 0 0 0 31
68.3255 46.1179 0 0 0 31
68.8131 46.1179 0 0 0 31
69.3007 46.1179 0 0 0 31
69.7883 46.1179 0 0 0 31
70.2759 46.1179 0 0 0 31
70.7635 46.1179 0 0 0 31
71.2511 46.1179 0 0 0 31
71.7387 46.1179 0 0 0 31
-53.5761 45.6303 0 0 0 31
-53.0885 45.6303 0 0 0 31
-52.6009 45.6303 0 0 0 31
-52.1133 45.6303 0 0 0 31
-51.6257 45.6303 0 0 0 31
-51.1381 45.6303 0 0 0 31
-50.6505 45.6303 0 0 0 31
-50.1629 45.6303 0 0 0 31
-49.6752 45.6303 0 0 0 31
-49.1876 45.6303 0 0 0 31
-48.7 45.6303 0 0 0 31
-48.2124 45.6303 0 0 0 31
-47.7248 45.6303 0 0 0 31
-47.2372 45.6303 0 0 0 31
-46.7496 45.6303 0 0 0 31
-46.262 45.6303 0 0 0 31
-45.7744 45.6303 0 0 0 31
-45.2868 45.6303 0 0 0 31
-44.7992 45.6303 0 0 0 31
-44.3116 45.6303 0 0 0 31
-43.824 45.6303 0 0 0 31
-43.3364 45.6303 0 0 0 31
-42.8488 45.6303 0 0 0 31
-42.3611 45.6303 0 0 0 31
-41.8735 45.6303 0 0 0 31
-41.3859 45.6303 0 0 0 31
-40.8983 45.6303 0 0 0 31
-40.4107 45.6303 0 0 0 31
-39.9231 45.6303 0 0 0 31
-39.4355 45.6303 0 0 0 31
-38.9479 45.6303 0 0 0 31
-38.4603 45.6303 0 0 0 31
-37.9727 45.6303 0 0 0 31
-37.4851 45.6303 0 0 0 31
-36.9975 45.6303 0 0 0 31
-36.5099 45.6303 0 0 0 31
-36.0223 45.6303 0 0 0 31
-35.5347 45.6303 0 0 0 31
-35.0471 45.6303 0 0 0 31
-34.5594 45.6303 0 0 0 31
-34.0718 45.6303 0 0 0 31
-33.5842 45.6303 0 0 0 31
-33.0966 45.6303 0 0 0 31
-32.609 45.6303 0 0 0 31
-32.1214 45.6303 0 0 0 31
-31.6338 45.6303 0 0 0 31
-31.1462 45.6303 0 0 0 31
-30.6586 45.6303 0 0 0 31
-30.171 45.6303 0 0 0 31
-29.6834 45.6303 0 0 0 31
-29.1958 45.6303 0 0 0 31
-28.7082 45.6303 0 0 0 31
-28.2206 45.6303 0 0 0 31
-27.733 45.6303 0 0 0 31
-27.2454 45.6303 0 0 0 31
-26.7577 45.6303 0 0 0 31
-26.2701 45.6303 0 0 0 31
-25.7825 45.6303 0 0 0 31
-25.2949 45.6303 0 0 0 31
-24.8073 45.6303 0 0 0 31
-24.3197 45.6303 0 0 0 31
-23.8321 45.6303 0 0 0 31
-23.3445 45.6303 0 0 0 31
-22.8569 45.6303 0 0 0 31
-22.3693 45.6303 0 0 0 31
-21.8817 45.6303 0 0 0 31
-21.3941 45.6303 0 0 0 31
-20.9065 45.6303 0 0 0 31
-20.4189 45.6303 0 0 0 31
-19.9313 45.6303 0 0 0 31
-19.4436 45.6303 0 0 0 31
-18.956 45.6303 0 0 0 31
-18.4684 45.6303 0 0 0 31
-17.9808 45.6303 0 0 0 31
-17.4932 45.6303 0 0 0 31
-17.0056 45.6303 0 0 0 31
-16.518 45.6303 0 0 0 31
-16.0304 45.6303 0 0 0 31
-15.5428 45.6303 0 0 0 31
-15.0552 45.6303 0 0 0 31
-14.5676 45.6303 0 0 0 31
-14.08 45.6303 0 0 0 31
-13.5924 45.6303 0 0 0 31
-13.1048 45.6303 0 0 0 31
-12.6172 45.6303 0 0 0 31
-12.1296 45.6303 0 0 0 31
-11.6419 45.6303 0 0 0 31
-11.1543 45.6303 0 0 0 31
-10.6667 45.6303 0 0 0 31
-10.1791 45.6303 0 0 0 31
-9.69152 45.6303 0 0 0 31
-9.20391 45.6303 0 0 0 31
-8.71631 45.6303 0 0 0 31
-8.2287 45.6303 0 0 0 31
-7.7411 45.6303 0 0 0 31
-7.25349 45.6303 0 0 0 31
-6.76588 45.6303 0 0 0 31
-6.27828 45.6303 0 0 0 31
-5.79067 45.6303 0 0 0 31
-5.30306 45.6303 0 0 0 31
-4.81546 45.6303 0 0 0 31
-4.32785 45.6303 0 0 0 31
-3.84024 45.6303 0 0 0 31
-3.35264 45.6303 0 0 0 31
-2.86503 45.6303 0 0 0 31
-2.37742 45.6303 0 0 0 31
-1.88982 45.6303 0 0 0 31
-1.40221 45.6303 0 0 0 31
-0.914606 45.6303 0 0 0 31
-0.426999 45.6303 0 0 0 31
0.0606072 45.6303 0 0 0 31
0.548214 45.6303 0 0 0 31
1.03582 45.6303 0 0 0 31
1.52343 45.6303 0 0 0 31
2.01103 45.6303 0 0 0 31
2.49864 45.6303 0 0 0 31
2.98625 45.6303 0 0 0 31
3.47385 45.6303 0 0 0 31
3.96146 45.6303 0 0 0 31
4.44906 45.6303 0 0 0 31
4.93667 45.6303 0 0 0 31
5.42428 45.6303 0 0 0 31
5.91188 45.6303 0 0 0 31
6.39949 45.6303 0 0 0 31
6.8871 45.6303 0 0 0 31
7.3747 45.6303 0 0 0 31
7.86231 45.6303 0 0 0 31
8.34992 45.6303 0 0 0 31
8.83752 45.6303 0 0 0 31
9.32513 45.6303 0 0 0 31
9.81274 45.6303 0 0 0 31
10.3003 45.6303 0 0 0 31
10.7879 45.6303 0 0 0 31
11.2756 45.6303 0 0 0 31
11.7632 45.6303 0 0 0 31
12.2508 45.6303 0 0 0 31
12.7384 45.6303 0 0 0 31
13.226 45.6303 0 0 0 31
13.7136 45.6303 0 0 0 31
14.2012 45.6303 0 0 0 31
14.6888 45.6303 0 0 0 31
15.1764 45.6303 0 0 0 31
15.664 45.6303 0 0 0 31
16.1516 45.6303 0 0 0 31
16.6392 45.6303 0 0 0 31
17.1268 45.6303 0 0 0 31
17.6144 45.6303 0 0 0 31
18.102 45.6303 0 0 0 31
18.5897 45.6303 0 0 0 31
19.0773 45.6303 0 0 0 31
19.5649 45.6303 0 0 0 31
20.0525 45.6303 0 0 0 31
20.5401 45.6303 0 0 0 31
21.0277 45.6303 0 0 0 31
21.5153 45.6303 0 0 0 31
22.0029 45.6303 0 0 0 31
22.4905 45.6303 0 0 0 31
22.9781 45.6303 0 0 0 31
23.4657 45.6303 0 0 0 31
23.9533 45.6303 0 0 0 31
24.4409 45.6303 0 0 0 31
24.9285 45.6303 0 0 0 31
25.4161 45.6303 0 0 0 31
25.9037 45.6303 0 0 0 31
26.3914 45.6303 0 0 0 31
26.879 45.6303 0 0 0 31
27.3666 45.6303 0 0 0 31
27.8542 45.6303 0 0 0 31
28.3418 45.6303 0 0 0 31
28.8294 45.6303 0 0 0 31
29.317 45.6303 0 0 0 31
29.8046 45.6303 0 0 0 31
30.2922 45.6303 0 0 0 31
30.7798 45.6303 0 0 0 31
31.2674 45.6303 0 0 0 31
31.755 45.6303 0 0 0 31
32.2426 45.6303 0 0 0 31
32.7302 45.6303 0 0 0 31
33.2178 45.6303 0 0 0 31
33.7054 45.6303 0 0 0 31
34.1931 45.6303 0 0 0 31
34.6807 45.6303 0 0 0 31
35.1683 45.6303 0 0 0 31
35.6559 45.6303 0 0 0 31
36.1435 45.6303 0 0 0 31
36.6311 45.6303 0 0 0 31
37.1187 45.6303 0 0 0 31
37.6063 45.6303 0 0 0 31
38.0939 45.6303 0 0 0 31
38.5815 45.6303 0 0 0 31
39.0691 45.6303 0 0 0 31
39.5567 45.6303 0 0 0 31
40.0443 45.6303 0 0 0 31
40.5319 45.6303 0 0 0 31
41.0195 45.6303 0 0 0 31
41.5072 45.6303 0 0 0 31
41.9948 45.6303 0 0 0 31
42.4824 45.6303 0 0 0 31
42.97 45.6303 0 0 0 31
43.4576 45.6303 0 0 0 31
43.9452 45.6303 0 0 0 31
44.4328 45.6303 0 0 0 31
44.9204 45.6303 0 0 0 31
45.408 45.6303 0 0 0 31
45.8956 45.6303 0 0 0 31
46.3832 45.6303 0 0 0 31
46.8708 45.6303 0 0 0 31
47.3584 45.6303 0 0 0 31
47.846 45.6303 0 0 0 31
48.3336 45.6303 0 0 0 31
48.8212 45.6303 0 0 0 31
49.3089 45.6303 0 0 0 31
49.7965 45.6303 0 0 0 31
50.2841 45.6303 0 0 0 31
50.7717 45.6303 0 0 0 31
51.2593 45.6303 0 0 0 31
51.7469 45.6303 0 0 0 31
52.2345 45.6303 0 0 0 31
52.7221 45.6303 0 0 0 31
53.2097 45.6303 0 0 0 31
53.6973 45.6303 0 0 0 31
54.1849 45.6303 0 0 0 31
54.6725 45.6303 0 0 0 31
55.1601 45.6303 0 0 0 31
55.6477 45.6303 0 0 0 31
56.1353 45.6303 0 0 0 31
56.6229 45.6303 0 0 0 31
57.1106 45.6303 0 0 0 31
57.5982 45.6303 0 0 0 31
58.0858 45.6303 0 0 0 31
58.5734 45.6303 0 0 0 31
59.061 45.6303 0 0 0 31
59.5486 45.6303 0 0 0 31
60.0362 45.6303 0 0 0 31
60.5238 45.6303 0 0 0 31
61.0114 45.6303 0 0 0 31
61.499 45.6303 0 0 0 31
61.9866 45.6303 0 0 0 31
62.4742 45.6303 0 0 0 31
62.9618 45.6303 0 0 0 31
63.4494 45.6303 0 0 0 31
63.937 45.6303 0 0 0 31
64.4247 45.6303 0 0 0 31
64.9123 45.6303 0 0 0 31
65.3999 45.6303 0 0 0 31
65.8875 45.6303 0 0 0 31
66.3751 45.6303 0 0 0 31
66.8627 45.6303 0 0 0 31
67.3503 45.6303 0 0 0 31
67.8379 45.6303 0 0 0 31
68.3255 45.6303 0 0 0 31
68.8131 45.6303 0 0 0 31
69.3007 45.6303 0 0 0 31
69.7883 45.6303 0 0 0 31
70.2759 45.6303 0 0 0 31
70.7635 45.6303 0 0 0 31
71.2511 45.6303 0 0 0 31
71.7387 45.6303 0 0 0 31
-53.5761 45.1427 0 0 0 31
-53.0885 45.1427 0 0 0 31
-52.6009 45.1427 0 0 0 31
-52.1133 45.1427 0 0 0 31
-51.6257 45.1427 0 0 0 31
-51.1381 45.1427 0 0 0 31
-50.6505 45.1427 0 0 0 31
-50.1629 45.1427 0 0 0 31
-49.6752 45.1427 0 0 0 31
-49.1876 45.1427 0 0 0 31
-48.7 45.1427 0 0 0 31
-48.2124 45.1427 0 0 0 31
-47.7248 45.1427 0 0 0 31
-47.2372 45.1427 0 0 0 31
-46.7496 45.1427 0 0 0 31
-46.262 45.1427 0 0 0 31
-45.7744 45.1427 0 0 0 31
-45.2868 45.1427 0 0 0 31
-44.7992 45.1427 0 0 0 31
-44.3116 45.1427 0 0 0 31
-43.824 45.1427 0 0 0 31
-43.3364 45.1427 0 0 0 31
-42.8488 45.1427 0 0 0 31
-42.3611 45.1427 0 0 0 31
-41.8735 45.1427 0 0 0 31
-41.3859 45.1427 0 0 0 31
-40.8983 45.1427 0 0 0 31
-40.4107 45.1427 0 0 0 31
-39.9231 45.1427 0 0 0 31
-39.4355 45.1427 0 0 0 31
-38.9479 45.1427 0 0 0 31
-38.4603 45.1427 0 0 0 31
-37.9727 45.1427 0 0 0 31
-37.4851 45.1427 0 0 0 31
-36.9975 45.1427 0 0 0 31
-36.5099 45.1427 0 0 0 31
-36.0223 45.1427 0 0 0 31
-35.5347 45.1427 0 0 0 31
-35.0471 45.1427 0 0 0 31
-34.5594 45.1427 0 0 0 31
-34.0718 45.1427 0 0 0 31
-33.5842 45.1427 0 0 0 31
-33.0966 45.1427 0 0 0 31
-32.609 45.1427 0 0 0 31
-32.1214 45.1427 0 0 0 31
-31.6338 45.1427 0 0 0 31
-31.1462 45.1427 0 0 0 31
-30.6586 45.1427 0 0 0 31
-30.171 45.1427 0 0 0 31
-29.6834 45.1427 0 0 0 31
-29.1958 45.1427 0 0 0 31
-28.7082 45.1427 0 0 0 31
-28.2206 45.1427 0 0 0 31
-27.733 45.1427 0 0 0 31
-27.2454 45.1427 0 0 0 31
-26.7577 45.1427 0 0 0 31
-26.2701 45.1427 0 0 0 31
-25.7825 45.1427 0 0 0 31
-25.2949 45.1427 0 0 0 31
-24.8073 45.1427 0 0 0 31
-24.3197 45.1427 0 0 0 31
-23.8321 45.1427 0 0 0 31
-23.3445 45.1427 0 0 0 31
-22.8569 45.1427 0 0 0 31
-22.3693 45.1427 0 0 0 31
-21.8817 45.1427 0 0 0 31
-21.3941 45.1427 0 0 0 31
-20.9065 45.1427 0 0 0 31
-20.4189 45.1427 0 0 0 31
-19.9313 45.1427 0 0 0 31
-19.4436 45.1427 0 0 0 31
-18.956 45.1427 0 0 0 31
-18.4684 45.1427 0 0 0 31
-17.9808 45.1427 0 0 0 31
-17.4932 45.1427 0 0 0 31
-17.0056 45.1427 0 0 0 31
-16.518 45.1427 0 0 0 31
-16.0304 45.1427 0 0 0 31
-15.5428 45.1427 0 0 0 31
-15.0552 45.1427 0 0 0 31
-14.5676 45.1427 0 0 0 31
-14.08 45.1427 0 0 0 31
-13.5924 45.1427 0 0 0 31
-13.1048 45.1427 0 0 0 31
-12.6172 45.1427 0 0 0 31
-12.1296 45.1427 0 0 0 31
-11.6419 45.1427 0 0 0 31
-11.1543 45.1427 0 0 0 31
-10.6667 45.1427 0 0 0 31
-10.1791 45.1427 0 0 0 31
-9.69152 45.1427 0 0 0 31
-9.20391 45.1427 0 0 0 31
-8.71631 45.1427 0 0 0 31
-8.2287 45.1427 0 0 0 31
-7.7411 45.1427 0 0 0 31
-7.25349 45.1427 0 0 0 31
-6.76588 45.1427 0 0 0 31
-6.27828 45.1427 0 0 0 31
-5.79067 45.1427 0 0 0 31
-5.30306 45.1427 0 0 0 31
-4.81546 45.1427 0 0 0 31
-4.32785 45.1427 0 0 0 31
-3.84024 45.1427 0 0 0 31
-3.35264 45.1427 0 0 0 31
-2.86503 45.1427 0 0 0 31
-2.37742 45.1427 0 0 0 31
-1.88982 45.1427 0 0 0 31
-1.40221 45.1427 0 0 0 31
-0.914606 45.1427 0 0 0 31
-0.426999 45.1427 0 0 0 31
0.0606072 45.1427 0 0 0 31
0.548214 45.1427 0 0 0 31
1.03582 45.1427 0 0 0 31
1.52343 45.1427 0 0 0 31
2.01103 45.1427 0 0 0 31
2.49864 45.1427 0 0 0 31
2.98625 45.1427 0 0 0 31
3.47385 45.1427 0 0 0 31
3.96146 45.1427 0 0 0 31
4.44906 45.1427 0 0 0 31
4.93667 45.1427 0 0 0 31
5.42428 45.1427 0 0 0 31
5.91188 45.1427 0 0 0 31
6.39949 45.1427 0 0 0 31
6.8871 45.1427 0 0 0 31
7.3747 45.1427 0 0 0 31
7.86231 45.1427 0 0 0 31
8.34992 45.1427 0 0 0 31
8.83752 45.1427 0 0 0 31
9.32513 45.1427 0 0 0 31
9.81274 45.1427 0 0 0 31
10.3003 45.1427 0 0 0 31
10.7879 45.1427 0 0 0 31
11.2756 45.1427 0 0 0 31
11.7632 45.1427 0 0 0 31
12.2508 45.1427 0 0 0 31
12.7384 45.1427 0 0 0 31
13.226 45.1427 0 0 0 31
13.7136 45.1427 0 0 0 31
14.2012 45.1427 0 0 0 31
14.6888 45.1427 0 0 0 31
15.1764 45.1427 0 0 0 31
15.664 45.1427 0 0 0 31
16.1516 45.1427 0 0 0 31
16.6392 45.1427 0 0 0 31
17.1268 45.1427 0 0 0 31
17.6144 45.1427 0 0 0 31
18.102 45.1427 0 0 0 31
18.5897 45.1427 0 0 0 31
19.0773 45.1427 0 0 0 31
19.5649 45.1427 0 0 0 31
20.0525 45.1427 0 0 0 31
20.5401 45.1427 0 0 0 31
21.0277 45.1427 0 0 0 31
21.5153 45.1427 0 0 0 31
22.0029 45.1427 0 0 0 31
22.4905 45.1427 0 0 0 31
22.9781 45.1427 0 0 0 31
23.4657 45.1427 0 0 0 31
23.9533 45.1427 0 0 0 31
24.4409 45.1427 0 0 0 31
24.9285 45.1427 0 0 0 31
25.4161 45.1427 0 0 0 31
25.9037 45.1427 0 0 0 31
26.3914 45.1427 0 0 0 31
26.879 45.1427 0 0 0 31
27.3666 45.1427 0 0 0 31
27.8542 45.1427 0 0 0 31
28.3418 45.1427 0 0 0 31
28.8294 45.1427 0 0 0 31
29.317 45.1427 0 0 0 31
29.8046 45.1427 0 0 0 31
30.2922 45.1427 0 0 0 31
30.7798 45.1427 0 0 0 31
31.2674 45.1427 0 0 0 31
31.755 45.1427 0 0 0 31
32.2426 45.1427 0 0 0 31
32.7302 45.1427 0 0 0 31
33.2178 45.1427 0 0 0 31
33.7054 45.1427 0 0 0 31
34.1931 45.1427 0 0 0 31
34.6807 45.1427 0 0 0 31
35.1683 45.1427 0 0 0 31
35.6559 45.1427 0 0 0 31
36.1435 45.1427 0 0 0 31
36.6311 45.1427 0 0 0 31
37.1187 45.1427 0 0 0 31
37.6063 45.1427 0 0 0 31
38.0939 45.1427 0 0 0 31
38.5815 45.1427 0 0 0 31
39.0691 45.1427 0 0 0 31
39.5567 45.1427 0 0 0 31
40.0443 45.1427 0 0 0 31
40.5319 45.1427 0 0 0 31
41.0195 45.1427 0 0 0 31
41.5072 45.1427 0 0 0 31
41.9948 45.1427 0 0 0 31
42.4824 45.1427 0 0 0 31
42.97 45.1427 0 0 0 31
43.4576 45.1427 0 0 0 31
43.9452 45.1427 0 0 0 31
44.4328 45.1427 0 0 0 31
44.9204 45.1427 0 0 0 31
45.408 45.1427 0 0 0 31
45.8956 45.1427 0 0 0 31
46.3832 45.1427 0 0 0 31
46.8708 45.1427 0 0 0 31
47.3584 45.1427 0 0 0 31
47.846 45.1427 0 0 0 31
48.3336 45.1427 0 0 0 31
48.8212 45.1427 0.092295 0.00228183 1 31
49.3089 45.1427 0.0923054 0.00227907 1 31
49.7965 45.1427 0.0923155 0.00227345 1 31
50.2841 45.1427 0.0923287 0.00227244 1 31
50.7717 45.1427 0.0923418 0.00227681 1 31
51.2593 45.1427 0.0923445 0.00228223 1 31
51.7469 45.1427 0.092346 0.00229287 1 31
52.2345 45.1427 0.0923408 0.00229379 1 31
52.7221 45.1427 0.0923358 0.00229141 1 31
53.2097 45.1427 0.0923359 0.00228878 1 31
53.6973 45.1427 0.0923395 0.002285 1 31
54.1849 45.1427 0.0923445 0.00228479 1 31
54.6725 45.1427 0.0923531 0.00228297 1 31
55.1601 45.1427 0.0923561 0.00228054 1 31
55.6477 45.1427 0.0923604 0.00228139 1 31
56.1353 45.1427 0.0923652 0.00228413 1 31
56.6229 45.1427 0.0923777 0.0022825 1 31
57.1106 45.1427 0.0923946 0.00228411 1 31
57.5982 45.1427 0.0924088 0.00229008 1 31
58.0858 45.1427 0.0924197 0.00229742 1 31
58.5734 45.1427 0.092423 0.00229836 1 31
59.061 45.1427 0.0924398 0.00230553 1 31
59.5486 45.1427 0.0924631 0.00231108 1 31
60.0362 45.1427 0.0924845 0.00231797 1 31
60.5238 45.1427 0.092498 0.00232141 1 31
61.0114 45.1427 0.0925062 0.00232737 1 31
61.499 45.1427 0.0925142 0.00233226 1 31
61.9866 45.1427 0.0925224 0.00233569 1 31
62.4742 45.1427 0.0925261 0.00234124 1 31
62.9618 45.1427 0.092533 0.00234614 1 31
63.4494 45.1427 0.0925379 0.0023531 1 31
63.937 45.1427 0.0925407 0.00236108 1 31
64.4247 45.1427 0.0925469 0.00236931 1 31
64.9123 45.1427 0.0925529 0.00237367 1 31
65.3999 45.1427 0.0925589 0.00237802 1 31
65.8875 45.1427 0.0925649 0.00238238 1 31
66.3751 45.1427 0.0925709 0.00238674 1 31
66.8627 45.1427 0.0925769 0.00239109 1 31
67.3503 45.1427 0 0 0 31
67.8379 45.1427 0 0 0 31
68.3255 45.1427 0 0 0 31
68.8131 45.1427 0 0 0 31
69.3007 45.1427 0 0 0 31
69.7883 45.1427 0 0 0 31
70.2759 45.1427 0 0 0 31
70.7635 45.1427 0 0 0 31
71.2511 45.1427 0 0 0 31
71.7387 45.1427 0 0 0 31
-53.5761 44.6551 0 0 0 31
-53.0885 44.6551 0 0 0 31
-52.6009 44.6551 0 0 0 31
-52.1133 44.6551 0 0 0 31
-51.6257 44.6551 0 0 0 31
-51.1381 44.6551 0 0 0 31
-50.6505 44.6551 0 0 0 31
-50.1629 44.6551 0 0 0 31
-49.6752 44.6551 0 0 0 31
-49.1876 44.6551 0 0 0 31
-48.7 44.6551 0 0 0 31
-48.2124 44.6551 0 0 0 31
-47.7248 44.6551 0 0 0 31
-47.2372 44.6551 0 0 0 31
-46.7496 44.6551 0 0 0 31
-46.262 44.6551 0 0 0 31
-45.7744 44.6551 0 0 0 31
-45.2868 44.6551 0 0 0 31
-44.7992 44.6551 0 0 0 31
-44.3116 44.6551 0 0 0 31
-43.824 44.6551 0 0 0 31
-43.3364 44.6551 0 0 0 31
-42.8488 44.6551 0 0 0 31
-42.3611 44.6551 0 0 0 31
-41.8735 44.6551 0 0 0 31
-41.3859 44.6551 0 0 0 31
-40.8983 44.6551 0 0 0 31
-40.4107 44.6551 0 0 0 31
-39.9231 44.6551 0 0 0 31
-39.4355 44.6551 0 0 0 31
-38.9479 44.6551 0 0 0 31
-38.4603 44.6551 0 0 0 31
-37.9727 44.6551 0 0 0 31
-37.4851 44.6551 0 0 0 31
-36.9975 44.6551 0 0 0 31
-36.5099 44.6551 0 0 0 31
-36.0223 44.6551 0 0 0 31
-35.5347 44.6551 0 0 0 31
-35.0471 44.6551 0 0 0 31
-34.5594 44.6551 0 0 0 31
-34.0718 44.6551 0 0 0 31
-33.5842 44.6551 0 0 0 31
-33.0966 44.6551 0 0 0 31
-32.609 44.6551 0 0 0 31
-32.1214 44.6551 0 0 0 31
-31.6338 44.6551 0 0 0 31
-31.1462 44.6551 0 0 0 31
-30.6586 44.6551 0 0 0 31
-30.171 44.6551 0 0 0 31
-29.6834 44.6551 0 0 0 31
-29.1958 44.6551 0 0 0 31
-28.7082 44.6551 0 0 0 31
-28.2206 44.6551 0 0 0 31
-27.733 44.6551 0 0 0 31
-27.2454 44.6551 0 0 0 31
-26.7577 44.6551 0 0 0 31
-26.2701 44.6551 0 0 0 31
-25.7825 44.6551 0 0 0 31
-25.2949 44.6551 0 0 0 31
-24.8073 44.6551 0 0 0 31
-24.3197 44.6551 0 0 0 31
-23.8321 44.6551 0 0 0 31
-23.3445 44.6551 0 0 0 31
-22.8569 44.6551 0 0 0 31
-22.3693 44.6551 0 0 0 31
-21.8817 44.6551 0 0 0 31
-21.3941 44.6551 0 0 0 31
-20.9065 44.6551 0 0 0 31
-20.4189 44.6551 0 0 0 31
-19.9313 44.6551 0 0 0 31
-19.4436 44.6551 0 0 0 31
-18.956 44.6551 0 0 0 31
-18.4684 44.6551 0 0 0 31
-17.9808 44.6551 0 0 0 31
-17.4932 44.6551 0 0 0 31
-17.0056 44.6551 0 0 0 31
-16.518 44.6551 0 0 0 31
-16.0304 44.6551 0 0 0 31
-15.5428 44.6551 0 0 0 31
-15.0552 44.6551 0 0 0 31
-14.5676 44.6551 0 0 0 31
-14.08 44.6551 0 0 0 31
-13.5924 44.6551 0 0 0 31
-13.1048 44.6551 0 0 0 31
-12.6172 44.6551 0 0 0 31
-12.1296 44.6551 0 0 0 31
-11.6419 44.6551 0 0 0 31
-11.1543 44.6551 0 0 0 31
-10.6667 44.6551 0 0 0 31
-10.1791 44.6551 0 0 0 31
-9.69152 44.6551 0 0 0 31
-9.20391 44.6551 0 0 0 31
-8.71631 44.6551 0 0 0 31
-8.2287 44.6551 0 0 0 31
-7.7411 44.6551 0 0 0 31
-7.25349 44.6551 0 0 0 31
-6.76588 44.6551 0 0 0 31
-6.27828 44.6551 0 0 0 31
-5.79067 44.6551 0 0 0 31
-5.30306 44.6551 0 0 0 31
-4.81546 44.6551 0 0 0 31
-4.32785 44.6551 0 0 0 31
-3.84024 44.6551 0 0 0 31
-3.35264 44.6551 0 0 0 31
-2.86503 44.6551 0 0 0 31
-2.37742 44.6551 0 0 0 31
-1.88982 44.6551 0 0 0 31
-1.40221 44.6551 0 0 0 31
-0.914606 44.6551 0 0 0 31
-0.426999 44.6551 0 0 0 31
0.0606072 44.6551 0 0 0 31
0.548214 44.6551 0 0 0 31
1.03582 44.6551 0 0 0 31
1.52343 44.6551 0 0 0 31
2.01103 44.6551 0 0 0 31
2.49864 44.6551 0 0 0 31
2.98625 44.6551 0 0 0 31
3.47385 44.6551 0 0 0 31
3.96146 44.6551 0 0 0 31
4.44906 44.6551 0 0 0 31
4.93667 44.6551 0 0 0 31
5.42428 44.6551 0 0 0 31
5.91188 44.6551 0 0 0 31
6.39949 44.6551 0 0 0 31
6.8871 44.6551 0 0 0 31
7.3747 44.6551 0 0 0 31
7.86231 44.6551 0 0 0 31
8.34992 44.6551 0 0 0 31
8.83752 44.6551 0 0 0 31
9.32513 44.6551 0 0 0 31
9.81274 44.6551 0 0 0 31
10.3003 44.6551 0 0 0 31
10.7879 44.6551 0 0 0 31
11.2756 44.6551 0 0 0 31
11.7632 44.6551 0 0 0 31
12.2508 44.6551 0 0 0 31
12.7384 44.6551 0 0 0 31
13.226 44.6551 0 0 0 31
13.7136 44.6551 0 0 0 31
14.2012 44.6551 0 0 0 31
14.6888 44.6551 0 0 0 31
15.1764 44.6551 0 0 0 31
15.664 44.6551 0 0 0 31
16.1516 44.6551 0 0 0 31
16.6392 44.6551 0 0 0 31
17.1268 44.6551 0 0 0 31
17.6144 44.6551 0 0 0 31
18.102 44.6551 0 0 0 31
18.5897 44.6551 0 0 0 31
19.0773 44.6551 0 0 0 31
19.5649 44.6551 0 0 0 31
20.0525 44.6551 0 0 0 31
20.5401 44.6551 0 0 0 31
21.0277 44.6551 0 0 0 31
21.5153 44.6551 0 0 0 31
22.0029 44.6551 0 0 0 31
22.4905 44.6551 0 0 0 31
22.9781 44.6551 0 0 0 31
23.4657 44.6551 0 0 0 31
23.9533 44.6551 0 0 0 31
24.4409 44.6551 0 0 0 31
24.9285 44.6551 0 0 0 31
25.4161 44.6551 0 0 0 31
25.9037 44.6551 0 0 0 31
26.3914 44.6551 0 0 0 31
26.879 44.6551 0 0 0 31
27.3666 44.6551 0 0 0 31
27.8542 44.6551 0.0922788 0.00235405 1 31
28.3418 44.6551 0.0922783 0.00234831 1 31
28.8294 44.6551 0.0922753 0.00233635 1 31
29.317 44.6551 0.0922769 0.00232584 1 31
29.8046 44.6551 0.0922799 0.00231914 1 31
30.2922 44.6551 0.0922832 0.00231808 1 31
30.7798 44.6551 0.0922862 0.00231852 1 31
31.2674 44.6551 0.0922884 0.00232016 1 31
31.755 44.6551 0.0922871 0.00231861 1 31
32.2426 44.6551 0.0922865 0.00231676 1 31
32.7302 44.6551 0.0922879 0.00231584 1 31
33.2178 44.6551 0.0922859 0.00230982 1 31
33.7054 44.6551 0.0922834 0.00230755 1 31
34.1931 44.6551 0.0922786 0.00230567 1 31
34.6807 44.6551 0.0922787 0.00230976 1 31
35.1683 44.6551 0.0922818 0.00231151 1 31
35.6559 44.6551 0.0922895 0.00230956 1 31
36.1435 44.6551 0.0922979 0.00230757 1 31
36.6311 44.6551 0.0923037 0.00230377 1 31
37.1187 44.6551 0.0923033 0.00230355 1 31
37.6063 44.6551 0.0923047 0.00230347 1 31
38.0939 44.6551 0.0923072 0.00230251 1 31
38.5815 44.6551 0.0923089 0.00229995 1 31
39.0691 44.6551 0.0923124 0.0022948 1 31
39.5567 44.6551 0.0923137 0.00229131 1 31
40.0443 44.6551 0.0923219 0.00229092 1 31
40.5319 44.6551 0.0923357 0.00229219 1 31
41.0195 44.6551 0.0923474 0.00229419 1 31
41.5072 44.6551 0.0923413 0.00228954 1 31
41.9948 44.6551 0.092329 0.00228197 1 31
42.4824 44.6551 0.0923113 0.0022735 1 31
42.97 44.6551 0.0922941 0.0022684 1 31
43.4576 44.6551 0.0922897 0.00227276 1 31
43.9452 44.6551 0.0922869 0.00228244 1 31
44.4328 44.6551 0.0922872 0.00228911 1 31
44.9204 44.6551 0.0922864 0.00229031 1 31
45.408 44.6551 0.0922823 0.00228759 1 31
45.8956 44.6551 0.092278 0.00228171 1 31
46.3832 44.6551 0.0922743 0.00227853 1 31
46.8708 44.6551 0.0922746 0.00228004 1 31
47.3584 44.6551 0.0922814 0.00228051 1 31
47.846 44.6551 0.0922835 0.00228125 1 31
48.3336 44.6551 0.0922911 0.00228338 1 31
48.8212 44.6551 0.0922991 0.00228166 1 31
49.3089 44.6551 0.0923093 0.00227911 1 31
49.7965 44.6551 0.0923192 0.00227394 1 31
50.2841 44.6551 0.0923321 0.00227332 1 31
50.7717 44.6551 0.0923448 0.00227778 1 31
51.2593 44.6551 0.0923475 0.00228322 1 31
51.7469 44.6551 0.0923491 0.00229353 1 31
52.2345 44.6551 0.0923443 0.00229451 1 31
52.7221 44.6551 0.0923398 0.00229228 1 31
53.2097 44.6551 0.09234 0.00228967 1 31
53.6973 44.6551 0.0923436 0.00228598 1 31
54.1849 44.6551 0.0923486 0.00228585 1 31
54.6725 44.6551 0.0923571 0.00228435 1 31
55.1601 44.6551 0.0923603 0.00228227 1 31
55.6477 44.6551 0.0923647 0.00228321 1 31
56.1353 44.6551 0.0923697 0.00228591 1 31
56.6229 44.6551 0.0923822 0.00228435 1 31
57.1106 44.6551 0.0923986 0.00228578 1 31
57.5982 44.6551 0.0924128 0.0022915 1 31
58.0858 44.6551 0.0924235 0.00229862 1 31
58.5734 44.6551 0.0924268 0.00229954 1 31
59.061 44.6551 0.0924431 0.00230657 1 31
59.5486 44.6551 0.0924657 0.00231207 1 31
60.0362 44.6551 0.0924863 0.00231897 1 31
60.5238 44.6551 0.0924992 0.00232244 1 31
61.0114 44.6551 0.0925073 0.00232822 1 31
61.499 44.6551 0.0925152 0.00233303 1 31
61.9866 44.6551 0.0925232 0.00233652 1 31
62.4742 44.6551 0.0925268 0.00234196 1 31
62.9618 44.6551 0.0925336 0.00234676 1 31
63.4494 44.6551 0.0925384 0.00235349 1 31
63.937 44.6551 0.0925413 0.00236122 1 31
64.4247 44.6551 0.0925475 0.00236919 1 31
64.9123 44.6551 0.0925535 0.00237355 1 31
65.3999 44.6551 0.0925595 0.0023779 1 31
65.8875 44.6551 0.0925655 0.00238226 1 31
66.3751 44.6551 0.0925715 0.00238662 1 31
66.8627 44.6551 0.0925775 0.00239097 1 31
67.3503 44.6551 0 0 0 31
67.8379 44.6551 0 0 0 31
68.3255 44.6551 0 0 0 31
68.8131 44.6551 0 0 0 31
69.3007 44.6551 0 0 0 31
69.7883 44.6551 0 0 0 31
70.2759 44.6551 0 0 0 31
70.7635 44.6551 0 0 0 31
71.2511 44.6551 0 0 0 31
71.7387 44.6551 0 0 0 31
-53.5761 44.1675 0 0 0 31
-53.0885 44.1675 0 0 0 31
-52.6009 44.1675 0 0 0 31
-52.1133 44.1675 0 0 0 31
-51.6257 44.1675 0 0 0 31
-51.1381 44.1675 0 0 0 31
-50.6505 44.1675 0 0 0 31
-50.1629 44.1675 0 0 0 31
-49.6752 44.1675 0 0 0 31
-49.1876 44.1675 0 0 0 31
-48.7 44.1675 0 0 0 31
-48.2124 44.1675 0 0 0 31
-47.7248 44.1675 0 0 0 31
-47.2372 44.1675 0 0 0 31
-46.7496 44.1675 0 0 0 31
-46.262 44.1675 0 0 0 31
-45.7744 44.1675 0 0 0 31
-45.2868 44.1675 0 0 0 31
-44.7992 44.1675 0 0 0 31
-44.3116 44.1675 0 0 0 31
-43.824 44.1675 0 0 0 31
-43.3364 44.1675 0 0 0 31
-42.8488 44.1675 0 0 0 31
-42.3611 44.1675 0 0 0 31
-41.8735 44.1675 0 0 0 31
-41.3859 44.1675 0 0 0 31
-40.8983 44.1675 0 0 0 31
-40.4107 44.1675 0 0 0 31
-39.9231 44.1675 0 0 0 31
-39.4355 44.1675 0 0 0 31
-38.9479 44.1675 0 0 0 31
-38.4603 44.1675 0 0 0 31
-37.9727 44.1675 0 0 0 31
-37.4851 44.1675 0 0 0 31
-36.9975 44.1675 0 0 0 31
-36.5099 44.1675 0 0 0 31
-36.0223 44.1675 0 0 0 31
-35.5347 44.1675 0 0 0 31
-35.0471 44.1675 0 0 0 31
-34.5594 44.1675 0 0 0 31
-34.0718 44.1675 0 0 0 31
-33.5842 44.1675 0 0 0 31
-33.0966 44.1675 0 0 0 31
-32.609 44.1675 0 0 0 31
-32.1214 44.1675 0 0 0 31
-31.6338 44.1675 0 0 0 31
-31.1462 44.1675 0 0 0 31
-30.6586 44.1675 0 0 0 31
-30.171 44.1675 0 0 0 31
-29.6834 44.1675 0 0 0 31
-29.1958 44.1675 0 0 0 31
-28.7082 44.1675 0 0 0 31
-28.2206 44.1675 0 0 0 31
-27.733 44.1675 0 0 0 31
-27.2454 44.1675 0 0 0 31
-26.7577 44.1675 0 0 0 31
-26.2701 44.1675 0 0 0 31
-25.7825 44.1675 0 0 0 31
-25.2949 44.1675 0 0 0 31
-24.8073 44.1675 0 0 0 31
-24.3197 44.1675 0 0 0 31
-23.8321 44.1675 0 0 0 31
-23.3445 44.1675 0 0 0 31
-22.8569 44.1675 0 0 0 31