TITLE = "12hz_0001"
VARIABLES = "x [mm]", "y [mm]", "Velocity u [m/s]", "Velocity v [m/s]", "isValid", "filter length"
ZONE T="Frame 0", I=257, J=150, F=POINT
STRANDID=1, SOLUTIONTIME=0.19999551
-102.59 42.3092 0 0 0 31
-101.757 42.3092 0 0 0 31
-100.923 42.3092 0 0 0 31
-100.089 42.3092 0 0 0 31
-99.2557 42.3092 0 0 0 31
-98.4221 42.3092 0 0 0 31
-97.5885 42.3092 0 0 0 31
-96.7549 42.3092 0 0 0 31
-95.9212 42.3092 0 0 0 31
-95.0876 42.3092 0 0 0 31
-94.254 42.3092 0 0 0 31
-93.4204 42.3092 0 0 0 31
-92.5868 42.3092 0 0 0 31
-91.7531 42.3092 0 0 0 31
-90.9195 42.3092 0 0 0 31
-90.0859 42.3092 0 0 0 31
-89.2523 42.3092 0 0 0 31
-88.4187 42.3092 0 0 0 31
-87.585 42.3092 0 0 0 31
-86.7514 42.3092 0 0 0 31
-85.9178 42.3092 0 0 0 31
-85.0842 42.3092 0 0 0 31
-84.2506 42.3092 0 0 0 31
-83.4169 42.3092 0 0 0 31
-82.5833 42.3092 0 0 0 31
-81.7497 42.3092 0 0 0 31
-80.9161 42.3092 0 0 0 31
-80.0825 42.3092 0 0 0 31
-79.2489 42.3092 0 0 0 31
-78.4152 42.3092 0 0 0 31
-77.5816 42.3092 0 0 0 31
-76.748 42.3092 0 0 0 31
-75.9144 42.3092 0 0 0 31
-75.0808 42.3092 0 0 0 31
-74.2471 42.3092 0 0 0 31
-73.4135 42.3092 0 0 0 31
-72.5799 42.3092 0 0 0 31
-71.7463 42.3092 0 0 0 31
-70.9127 42.3092 0 0 0 31
-70.079 42.3092 0 0 0 31
-69.2454 42.3092 0 0 0 31
-68.4118 42.3092 0 0 0 31
-67.5782 42.3092 0 0 0 31
-66.7446 42.3092 0 0 0 31
-65.9109 42.3092 0 0 0 31
-65.0773 42.3092 0 0 0 31
-64.2437 42.3092 0 0 0 31
-63.4101 42.3092 0 0 0 31
-62.5765 42.3092 0 0 0 31
-61.7428 42.3092 0 0 0 31
-60.9092 42.3092 0 0 0 31
-60.0756 42.3092 0 0 0 31
-59.242 42.3092 0 0 0 31
-58.4084 42.3092 0 0 0 31
-57.5748 42.3092 0 0 0 31
-56.7411 42.3092 0 0 0 31
-55.9075 42.3092 0 0 0 31
-55.0739 42.3092 0 0 0 31
-54.2403 42.3092 0 0 0 31
-53.4067 42.3092 0 0 0 31
-52.573 42.3092 0 0 0 31
-51.7394 42.3092 0 0 0 31
-50.9058 42.3092 0 0 0 31
-50.0722 42.3092 0 0 0 31
-49.2386 42.3092 0 0 0 31
-48.4049 42.3092 0 0 0 31
-47.5713 42.3092 0 0 0 31
-46.7377 42.3092 0 0 0 31
-45.9041 42.3092 0 0 0 31
-45.0705 42.3092 0 0 0 31
-44.2368 42.3092 0 0 0 31
-43.4032 42.3092 0 0 0 31
-42.5696 42.3092 0 0 0 31
-41.736 42.3092 0 0 0 31
-40.9024 42.3092 0 0 0 31
-40.0688 42.3092 0 0 0 31
-39.2351 42.3092 0 0 0 31
-38.4015 42.3092 0 0 0 31
-37.5679 42.3092 0 0 0 31
-36.7343 42.3092 0 0 0 31
-35.9007 42.3092 0 0 0 31
-35.067 42.3092 0 0 0 31
-34.2334 42.3092 0 0 0 31
-33.3998 42.3092 0 0 0 31
-32.5662 42.3092 0 0 0 31
-31.7326 42.3092 0 0 0 31
-30.8989 42.3092 0 0 0 31
-30.0653 42.3092 0 0 0 31
-29.2317 42.3092 0 0 0 31
-28.3981 42.3092 0 0 0 31
-27.5645 42.3092 0 0 0 31
-26.7308 42.3092 0 0 0 31
-25.8972 42.3092 0 0 0 31
-25.0636 42.3092 0 0 0 31
-24.23 42.3092 0 0 0 31
-23.3964 42.3092 0 0 0 31
-22.5627 42.3092 0 0 0 31
-21.7291 42.3092 0 0 0 31
-20.8955 42.3092 0 0 0 31
-20.0619 42.3092 0 0 0 31
-19.2283 42.3092 0 0 0 31
-18.3947 42.3092 0 0 0 31
-17.561 42.3092 0 0 0 31
-16.7274 42.3092 0 0 0 31
-15.8938 42.3092 0 0 0 31
-15.0602 42.3092 0 0 0 31
-14.2266 42.3092 0 0 0 31
-13.3929 42.3092 0 0 0 31
-12.5593 42.3092 0 0 0 31
-11.7257 42.3092 0 0 0 31
-10.8921 42.3092 0 0 0 31
-10.0585 42.3092 0 0 0 31
-9.22484 42.3092 0 0 0 31
-8.39122 42.3092 0 0 0 31
-7.5576 42.3092 0 0 0 31
-6.72398 42.3092 0 0 0 31
-5.89036 42.3092 0 0 0 31
-5.05674 42.3092 0 0 0 31
-4.22312 42.3092 0 0 0 31
-3.38951 42.3092 0 0 0 31
-2.55589 42.3092 0 0 0 31
-1.72227 42.3092 0 0 0 31
-0.888648 42.3092 0 0 0 31
-0.0550288 42.3092 0 0 0 31
0.77859 42.3092 0 0 0 31
1.61221 42.3092 0 0 0 31
2.44583 42.3092 0 0 0 31
3.27945 42.3092 0 0 0 31
4.11307 42.3092 0 0 0 31
4.94669 42.3092 0 0 0 31
5.78031 42.3092 0 0 0 31
6.61392 42.3092 0 0 0 31
7.44754 42.3092 0 0 0 31
8.28116 42.3092 0 0 0 31
9.11478 42.3092 0 0 0 31
9.9484 42.3092 0 0 0 31
10.782 42.3092 0 0 0 31
11.6156 42.3092 0 0 0 31
12.4493 42.3092 0 0 0 31
13.2829 42.3092 0 0 0 31
14.1165 42.3092 0 0 0 31
14.9501 42.3092 0 0 0 31
15.7837 42.3092 0 0 0 31
16.6174 42.3092 0 0 0 31
17.451 42.3092 0 0 0 31
18.2846 42.3092 0 0 0 31
19.1182 42.3092 0 0 0 31
19.9518 42.3092 0 0 0 31
20.7855 42.3092 0 0 0 31
21.6191 42.3092 0 0 0 31
22.4527 42.3092 0 0 0 31
23.2863 42.3092 0 0 0 31
24.1199 42.3092 0 0 0 31
24.9535 42.3092 0 0 0 31
25.7872 42.3092 0 0 0 31
26.6208 42.3092 0 0 0 31
27.4544 42.3092 0 0 0 31
28.288 42.3092 0 0 0 31
29.1216 42.3092 0 0 0 31
29.9553 42.3092 0 0 0 31
30.7889 42.3092 0 0 0 31
31.6225 42.3092 0 0 0 31
32.4561 42.3092 0 0 0 31
33.2897 42.3092 0 0 0 31
34.1234 42.3092 0 0 0 31
34.957 42.3092 0 0 0 31
35.7906 42.3092 0 0 0 31
36.6242 42.3092 0 0 0 31
37.4578 42.3092 0 0 0 31
38.2915 42.3092 0 0 0 31
39.1251 42.3092 0 0 0 31
39.9587 42.3092 0 0 0 31
40.7923 42.3092 0 0 0 31
41.6259 42.3092 0 0 0 31
42.4596 42.3092 0 0 0 31
43.2932 42.3092 0 0 0 31
44.1268 42.3092 0 0 0 31
44.9604 42.3092 0 0 0 31
45.794 42.3092 0 0 0 31
46.6276 42.3092 0 0 0 31
47.4613 42.3092 0 0 0 31
48.2949 42.3092 0 0 0 31
49.1285 42.3092 0 0 0 31
49.9621 42.3092 0 0 0 31
50.7957 42.3092 0 0 0 31
51.6294 42.3092 0 0 0 31
52.463 42.3092 0 0 0 31
53.2966 42.3092 0 0 0 31
54.1302 42.3092 0 0 0 31
54.9638 42.3092 0 0 0 31
55.7975 42.3092 0 0 0 31
56.6311 42.3092 0 0 0 31
57.4647 42.3092 0 0 0 31
58.2983 42.3092 0 0 0 31
59.1319 42.3092 0 0 0 31
59.9656 42.3092 0 0 0 31
60.7992 42.3092 0 0 0 31
61.6328 42.3092 0 0 0 31
62.4664 42.3092 0 0 0 31
63.3 42.3092 0 0 0 31
64.1336 42.3092 0 0 0 31
64.9673 42.3092 0 0 0 31
65.8009 42.3092 0 0 0 31
66.6345 42.3092 0 0 0 31
67.4681 42.3092 0 0 0 31
68.3017 42.3092 0 0 0 31
69.1354 42.3092 0 0 0 31
69.969 42.3092 0 0 0 31
70.8026 42.3092 0 0 0 31
71.6362 42.3092 0 0 0 31
72.4698 42.3092 0 0 0 31
73.3035 42.3092 0 0 0 31
74.1371 42.3092 0 0 0 31
74.9707 42.3092 0 0 0 31
75.8043 42.3092 0 0 0 31
76.6379 42.3092 0 0 0 31
77.4716 42.3092 0 0 0 31
78.3052 42.3092 0 0 0 31
79.1388 42.3092 0 0 0 31
79.9724 42.3092 0 0 0 31
80.806 42.3092 0 0 0 31
81.6397 42.3092 0 0 0 31
82.4733 42.3092 0 0 0 31
83.3069 42.3092 0 0 0 31
84.1405 42.3092 0 0 0 31
84.9741 42.3092 0 0 0 31
85.8077 42.3092 0 0 0 31
86.6414 42.3092 0 0 0 31
87.475 42.3092 0 0 0 31
88.3086 42.3092 0 0 0 31
89.1422 42.3092 0 0 0 31
89.9758 42.3092 0 0 0 31
90.8095 42.3092 0 0 0 31
91.6431 42.3092 0 0 0 31
92.4767 42.3092 0 0 0 31
93.3103 42.3092 0 0 0 31
94.1439 42.3092 0 0 0 31
94.9776 42.3092 0 0 0 31
95.8112 42.3092 0 0 0 31
96.6448 42.3092 0 0 0 31
97.4784 42.3092 0 0 0 31
98.312 42.3092 0 0 0 31
99.1457 42.3092 0 0 0 31
99.9793 42.3092 0 0 0 31
100.813 42.3092 0 0 0 31
101.647 42.3092 0 0 0 31
102.48 42.3092 0 0 0 31
103.314 42.3092 0 0 0 31
104.147 42.3092 0 0 0 31
104.981 42.3092 0 0 0 31
105.815 42.3092 0 0 0 31
106.648 42.3092 0 0 0 31
107.482 42.3092 0 0 0 31
108.315 42.3092 0 0 0 31
109.149 42.3092 0 0 0 31
109.983 42.3092 0 0 0 31
110.816 42.3092 0 0 0 31
-102.59 41.4756 0 0 0 31
-101.757 41.4756 0 0 0 31
-100.923 41.4756 0 0 0 31
-100.089 41.4756 0 0 0 31
-99.2557 41.4756 0 0 0 31
-98.4221 41.4756 0 0 0 31
-97.5885 41.4756 0 0 0 31
-96.7549 41.4756 0 0 0 31
-95.9212 41.4756 0 0 0 31
-95.0876 41.4756 0 0 0 31
-94.254 41.4756 0 0 0 31
-93.4204 41.4756 0 0 0 31
-92.5868 41.4756 0 0 0 31
-91.7531 41.4756 0 0 0 31
-90.9195 41.4756 0 0 0 31
-90.0859 41.4756 0 0 0 31
-89.2523 41.4756 0 0 0 31
-88.4187 41.4756 0 0 0 31
-87.585 41.4756 0 0 0 31
-86.7514 41.4756 0 0 0 31
-85.9178 41.4756 0 0 0 31
-85.0842 41.4756 0 0 0 31
-84.2506 41.4756 0 0 0 31
-83.4169 41.4756 0 0 0 31
-82.5833 41.4756 0 0 0 31
-81.7497 41.4756 0 0 0 31
-80.9161 41.4756 0 0 0 31
-80.0825 41.4756 0 0 0 31
-79.2489 41.4756 0 0 0 31
-78.4152 41.4756 0 0 0 31
-77.5816 41.4756 0 0 0 31
-76.748 41.4756 0 0 0 31
-75.9144 41.4756 0 0 0 31
-75.0808 41.4756 0 0 0 31
-74.2471 41.4756 0 0 0 31
-73.4135 41.4756 0 0 0 31
-72.5799 41.4756 0 0 0 31
-71.7463 41.4756 0 0 0 31
-70.9127 41.4756 0 0 0 31
-70.079 41.4756 0 0 0 31
-69.2454 41.4756 0 0 0 31
-68.4118 41.4756 0 0 0 31
-67.5782 41.4756 0 0 0 31
-66.7446 41.4756 0 0 0 31
-65.9109 41.4756 0 0 0 31
-65.0773 41.4756 0 0 0 31
-64.2437 41.4756 0 0 0 31
-63.4101 41.4756 0 0 0 31
-62.5765 41.4756 0 0 0 31
-61.7428 41.4756 0 0 0 31
-60.9092 41.4756 0 0 0 31
-60.0756 41.4756 0 0 0 31
-59.242 41.4756 0 0 0 31
-58.4084 41.4756 0 0 0 31
-57.5748 41.4756 0 0 0 31
-56.7411 41.4756 0 0 0 31
-55.9075 41.4756 0 0 0 31
-55.0739 41.4756 0 0 0 31
-54.2403 41.4756 0 0 0 31
-53.4067 41.4756 0 0 0 31
-52.573 41.4756 0 0 0 31
-51.7394 41.4756 0 0 0 31
-50.9058 41.4756 0 0 0 31
-50.0722 41.4756 0 0 0 31
-49.2386 41.4756 0 0 0 31
-48.4049 41.4756 0 0 0 31
-47.5713 41.4756 0 0 0 31
-46.7377 41.4756 0 0 0 31
-45.9041 41.4756 0 0 0 31
-45.0705 41.4756 0 0 0 31
-44.2368 41.4756 0 0 0 31
-43.4032 41.4756 0 0 0 31
-42.5696 41.4756 0 0 0 31
-41.736 41.4756 0 0 0 31
-40.9024 41.4756 0 0 0 31
-40.0688 41.4756 0 0 0 31
-39.2351 41.4756 0 0 0 31
-38.4015 41.4756 0 0 0 31
-37.5679 41.4756 0 0 0 31
-36.7343 41.4756 0 0 0 31
-35.9007 41.4756 0 0 0 31
-35.067 41.4756 0 0 0 31
-34.2334 41.4756 0 0 0 31
-33.3998 41.4756 0 0 0 31
-32.5662 41.4756 0 0 0 31
-31.7326 41.4756 0 0 0 31
-30.8989 41.4756 0 0 0 31
-30.0653 41.4756 0 0 0 31
-29.2317 41.4756 0 0 0 31
-28.3981 41.4756 0 0 0 31
-27.5645 41.4756 0 0 0 31
-26.7308 41.4756 0 0 0 31
-25.8972 41.4756 0 0 0 31
-25.0636 41.4756 0 0 0 31
-24.23 41.4756 0 0 0 31
-23.3964 41.4756 0 0 0 31
-22.5627 41.4756 0 0 0 31
-21.7291 41.4756 0 0 0 31
-20.8955 41.4756 0 0 0 31
-20.0619 41.4756 0 0 0 31
-19.2283 41.4756 0 0 0 31
-18.3947 41.4756 0 0 0 31
-17.561 41.4756 0 0 0 31
-16.7274 41.4756 0 0 0 31
-15.8938 41.4756 0 0 0 31
-15.0602 41.4756 0 0 0 31
-14.2266 41.4756 0 0 0 31
-13.3929 41.4756 0 0 0 31
-12.5593 41.4756 0 0 0 31
-11.7257 41.4756 0 0 0 31
-10.8921 41.4756 0 0 0 31
-10.0585 41.4756 0 0 0 31
-9.22484 41.4756 0 0 0 31
-8.39122 41.4756 0 0 0 31
-7.5576 41.4756 0 0 0 31
-6.72398 41.4756 0 0 0 31
-5.89036 41.4756 0 0 0 31
-5.05674 41.4756 0 0 0 31
-4.22312 41.4756 0 0 0 31
-3.38951 41.4756 0 0 0 31
-2.55589 41.4756 0 0 0 31
-1.72227 41.4756 0 0 0 31
-0.888648 41.4756 0 0 0 31
-0.0550288 41.4756 0 0 0 31
0.77859 41.4756 0 0 0 31
1.61221 41.4756 0 0 0 31
2.44583 41.4756 0 0 0 31
3.27945 41.4756 0 0 0 31
4.11307 41.4756 0 0 0 31
4.94669 41.4756 0 0 0 31
5.78031 41.4756 0 0 0 31
6.61392 41.4756 0 0 0 31
7.44754 41.4756 0 0 0 31
8.28116 41.4756 0 0 0 31
9.11478 41.4756 0 0 0 31
9.9484 41.4756 0 0 0 31
10.782 41.4756 0 0 0 31
11.6156 41.4756 0 0 0 31
12.4493 41.4756 0 0 0 31
13.2829 41.4756 0 0 0 31
14.1165 41.4756 0 0 0 31
14.9501 41.4756 0 0 0 31
15.7837 41.4756 0 0 0 31
16.6174 41.4756 0 0 0 31
17.451 41.4756 0 0 0 31
18.2846 41.4756 0 0 0 31
19.1182 41.4756 0 0 0 31
19.9518 41.4756 0 0 0 31
20.7855 41.4756 0 0 0 31
21.6191 41.4756 0 0 0 31
22.4527 41.4756 0 0 0 31
23.2863 41.4756 0 0 0 31
24.1199 41.4756 0 0 0 31
24.9535 41.4756 0 0 0 31
25.7872 41.4756 0 0 0 31
26.6208 41.4756 0 0 0 31
27.4544 41.4756 0 0 0 31
28.288 41.4756 0 0 0 31
29.1216 41.4756 0 0 0 31
29.9553 41.4756 0 0 0 31
30.7889 41.4756 0 0 0 31
31.6225 41.4756 0 0 0 31
32.4561 41.4756 0 0 0 31
33.2897 41.4756 0 0 0 31
34.1234 41.4756 0 0 0 31
34.957 41.4756 0 0 0 31
35.7906 41.4756 0 0 0 31
36.6242 41.4756 0 0 0 31
37.4578 41.4756 0 0 0 31
38.2915 41.4756 0 0 0 31
39.1251 41.4756 0 0 0 31
39.9587 41.4756 0 0 0 31
40.7923 41.4756 0 0 0 31
41.6259 41.4756 0 0 0 31
42.4596 41.4756 0 0 0 31
43.2932 41.4756 0 0 0 31
44.1268 41.4756 0 0 0 31
44.9604 41.4756 0 0 0 31
45.794 41.4756 0 0 0 31
46.6276 41.4756 0 0 0 31
47.4613 41.4756 0 0 0 31
48.2949 41.4756 0 0 0 31
49.1285 41.4756 0 0 0 31
49.9621 41.4756 0 0 0 31
50.7957 41.4756 0 0 0 31
51.6294 41.4756 0 0 0 31
52.463 41.4756 0 0 0 31
53.2966 41.4756 0 0 0 31
54.1302 41.4756 0 0 0 31
54.9638 41.4756 0 0 0 31
55.7975 41.4756 0 0 0 31
56.6311 41.4756 0 0 0 31
57.4647 41.4756 0 0 0 31
58.2983 41.4756 0 0 0 31
59.1319 41.4756 0 0 0 31
59.9656 41.4756 0 0 0 31
60.7992 41.4756 0 0 0 31
61.6328 41.4756 0 0 0 31
62.4664 41.4756 0 0 0 31
63.3 41.4756 0 0 0 31
64.1336 41.4756 0 0 0 31
64.9673 41.4756 0 0 0 31
65.8009 41.4756 0 0 0 31
66.6345 41.4756 0 0 0 31
67.4681 41.4756 0 0 0 31
68.3017 41.4756 0 0 0 31
69.1354 41.4756 0 0 0 31
69.969 41.4756 0 0 0 31
70.8026 41.4756 0 0 0 31
71.6362 41.4756 0 0 0 31
72.4698 41.4756 0 0 0 31
73.3035 41.4756 0 0 0 31
74.1371 41.4756 0 0 0 31
74.9707 41.4756 0 0 0 31
75.8043 41.4756 0 0 0 31
76.6379 41.4756 0 0 0 31
77.4716 41.4756 0 0 0 31
78.3052 41.4756 0 0 0 31
79.1388 41.4756 0 0 0 31
79.9724 41.4756 0 0 0 31
80.806 41.4756 0 0 0 31
81.6397 41.4756 0 0 0 31
82.4733 41.4756 0 0 0 31
83.3069 41.4756 0 0 0 31
84.1405 41.4756 0 0 0 31
84.9741 41.4756 0 0 0 31
85.8077 41.4756 0 0 0 31
86.6414 41.4756 0 0 0 31
87.475 41.4756 0 0 0 31
88.3086 41.4756 0 0 0 31
89.1422 41.4756 0 0 0 31
89.9758 41.4756 0 0 0 31
90.8095 41.4756 0 0 0 31
91.6431 41.4756 0 0 0 31
92.4767 41.4756 0 0 0 31
93.3103 41.4756 0 0 0 31
94.1439 41.4756 0 0 0 31
94.9776 41.4756 0 0 0 31
95.8112 41.4756 0 0 0 31
96.6448 41.4756 0 0 0 31
97.4784 41.4756 0 0 0 31
98.312 41.4756 0 0 0 31
99.1457 41.4756 0 0 0 31
99.9793 41.4756 0 0 0 31
100.813 41.4756 0 0 0 31
101.647 41.4756 0 0 0 31
102.48 41.4756 0 0 0 31
103.314 41.4756 0 0 0 31
104.147 41.4756 0 0 0 31
104.981 41.4756 0 0 0 31
105.815 41.4756 0 0 0 31
106.648 41.4756 0 0 0 31
107.482 41.4756 0 0 0 31
108.315 41.4756 0 0 0 31
109.149 41.4756 0 0 0 31
109.983 41.4756 0 0 0 31
110.816 41.4756 0 0 0 31
-102.59 40.642 0 0 0 31
-101.757 40.642 0 0 0 31
-100.923 40.642 0 0 0 31
-100.089 40.642 0 0 0 31
-99.2557 40.642 0 0 0 31
-98.4221 40.642 0 0 0 31
-97.5885 40.642 0 0 0 31
-96.7549 40.642 0 0 0 31
-95.9212 40.642 0 0 0 31
-95.0876 40.642 0 0 0 31
-94.254 40.642 0 0 0 31
-93.4204 40.642 0 0 0 31
-92.5868 40.642 0 0 0 31
-91.7531 40.642 0 0 0 31
-90.9195 40.642 0 0 0 31
-90.0859 40.642 0 0 0 31
-89.2523 40.642 0 0 0 31
-88.4187 40.642 0 0 0 31
-87.585 40.642 0 0 0 31
-86.7514 40.642 0 0 0 31
-85.9178 40.642 0 0 0 31
-85.0842 40.642 0 0 0 31
-84.2506 40.642 0 0 0 31
-83.4169 40.642 0 0 0 31
-82.5833 40.642 0 0 0 31
-81.7497 40.642 0 0 0 31
-80.9161 40.642 0 0 0 31
-80.0825 40.642 0 0 0 31
-79.2489 40.642 0 0 0 31
-78.4152 40.642 0 0 0 31
-77.5816 40.642 0 0 0 31
-76.748 40.642 0 0 0 31
-75.9144 40.642 0 0 0 31
-75.0808 40.642 0 0 0 31
-74.2471 40.642 0 0 0 31
-73.4135 40.642 0 0 0 31
-72.5799 40.642 0 0 0 31
-71.7463 40.642 0 0 0 31
-70.9127 40.642 0 0 0 31
-70.079 40.642 0 0 0 31
-69.2454 40.642 0 0 0 31
-68.4118 40.642 0 0 0 31
-67.5782 40.642 0 0 0 31
-66.7446 40.642 0 0 0 31
-65.9109 40.642 0 0 0 31
-65.0773 40.642 0 0 0 31
-64.2437 40.642 0 0 0 31
-63.4101 40.642 0 0 0 31
-62.5765 40.642 0 0 0 31
-61.7428 40.642 0 0 0 31
-60.9092 40.642 0 0 0 31
-60.0756 40.642 0 0 0 31
-59.242 40.642 0 0 0 31
-58.4084 40.642 0 0 0 31
-57.5748 40.642 0 0 0 31
-56.7411 40.642 0 0 0 31
-55.9075 40.642 0 0 0 31
-55.0739 40.642 0 0 0 31
-54.2403 40.642 0 0 0 31
-53.4067 40.642 0 0 0 31
-52.573 40.642 0 0 0 31
-51.7394 40.642 0 0 0 31
-50.9058 40.642 0 0 0 31
-50.0722 40.642 0 0 0 31
-49.2386 40.642 0 0 0 31
-48.4049 40.642 0 0 0 31
-47.5713 40.642 0 0 0 31
-46.7377 40.642 0 0 0 31
-45.9041 40.642 0 0 0 31
-45.0705 40.642 0 0 0 31
-44.2368 40.642 0 0 0 31
-43.4032 40.642 0 0 0 31
-42.5696 40.642 0 0 0 31
-41.736 40.642 0 0 0 31
-40.9024 40.642 0 0 0 31
-40.0688 40.642 0 0 0 31
-39.2351 40.642 0 0 0 31
-38.4015 40.642 0 0 0 31
-37.5679 40.642 0 0 0 31
-36.7343 40.642 0 0 0 31
-35.9007 40.642 0 0 0 31
-35.067 40.642 0 0 0 31
-34.2334 40.642 0 0 0 31
-33.3998 40.642 0 0 0 31
-32.5662 40.642 0 0 0 31
-31.7326 40.642 0 0 0 31
-30.8989 40.642 0 0 0 31
-30.0653 40.642 0 0 0 31
-29.2317 40.642 0 0 0 31
-28.3981 40.642 0 0 0 31
-27.5645 40.642 0 0 0 31
-26.7308 40.642 0 0 0 31
-25.8972 40.642 0 0 0 31
-25.0636 40.642 0 0 0 31
-24.23 40.642 0 0 0 31
-23.3964 40.642 0 0 0 31
-22.5627 40.642 0 0 0 31
-21.7291 40.642 0 0 0 31
-20.8955 40.642 0 0 0 31
-20.0619 40.642 0 0 0 31
-19.2283 40.642 0 0 0 31
-18.3947 40.642 0 0 0 31
-17.561 40.642 0 0 0 31
-16.7274 40.642 0 0 0 31
-15.8938 40.642 0 0 0 31
-15.0602 40.642 0 0 0 31
-14.2266 40.642 0 0 0 31
-13.3929 40.642 0 0 0 31
-12.5593 40.642 0 0 0 31
-11.7257 40.642 0 0 0 31
-10.8921 40.642 0 0 0 31
-10.0585 40.642 0 0 0 31
-9.22484 40.642 0 0 0 31
-8.39122 40.642 0 0 0 31
-7.5576 40.642 0 0 0 31
-6.72398 40.642 0 0 0 31
-5.89036 40.642 0 0 0 31
-5.05674 40.642 0 0 0 31
-4.22312 40.642 0 0 0 31
-3.38951 40.642 0 0 0 31
-2.55589 40.642 0 0 0 31
-1.72227 40.642 0 0 0 31
-0.888648 40.642 0 0 0 31
-0.0550288 40.642 0 0 0 31
0.77859 40.642 0 0 0 31
1.61221 40.642 0 0 0 31
2.44583 40.642 0 0 0 31
3.27945 40.642 0 0 0 31
4.11307 40.642 0 0 0 31
4.94669 40.642 0 0 0 31
5.78031 40.642 0 0 0 31
6.61392 40.642 0 0 0 31
7.44754 40.642 0 0 0 31
8.28116 40.642 0 0 0 31
9.11478 40.642 0 0 0 31
9.9484 40.642 0 0 0 31
10.782 40.642 0 0 0 31
11.6156 40.642 0 0 0 31
12.4493 40.642 0 0 0 31
13.2829 40.642 0 0 0 31
14.1165 40.642 0 0 0 31
14.9501 40.642 0 0 0 31
15.7837 40.642 0 0 0 31
16.6174 40.642 0 0 0 31
17.451 40.642 0 0 0 31
18.2846 40.642 0 0 0 31
19.1182 40.642 0 0 0 31
19.9518 40.642 0 0 0 31
20.7855 40.642 0 0 0 31
21.6191 40.642 0 0 0 31
22.4527 40.642 0 0 0 31
23.2863 40.642 0 0 0 31
24.1199 40.642 0 0 0 31
24.9535 40.642 0 0 0 31
25.7872 40.642 0 0 0 31
26.6208 40.642 0 0 0 31
27.4544 40.642 0 0 0 31
28.288 40.642 0 0 0 31
29.1216 40.642 0 0 0 31
29.9553 40.642 0 0 0 31
30.7889 40.642 0 0 0 31
31.6225 40.642 0 0 0 31
32.4561 40.642 0 0 0 31
33.2897 40.642 0 0 0 31
34.1234 40.642 0 0 0 31
34.957 40.642 0 0 0 31
35.7906 40.642 0 0 0 31
36.6242 40.642 0 0 0 31
37.4578 40.642 0 0 0 31
38.2915 40.642 0 0 0 31
39.1251 40.642 0 0 0 31
39.9587 40.642 0 0 0 31
40.7923 40.642 0 0 0 31
41.6259 40.642 0 0 0 31
42.4596 40.642 0 0 0 31
43.2932 40.642 0 0 0 31
44.1268 40.642 0 0 0 31
44.9604 40.642 0 0 0 31
45.794 40.642 0 0 0 31
46.6276 40.642 0 0 0 31
47.4613 40.642 0 0 0 31
48.2949 40.642 0 0 0 31
49.1285 40.642 0 0 0 31
49.9621 40.642 0 0 0 31
50.7957 40.642 0 0 0 31
51.6294 40.642 0 0 0 31
52.463 40.642 0 0 0 31
53.2966 40.642 0 0 0 31
54.1302 40.642 0 0 0 31
54.9638 40.642 0 0 0 31
55.7975 40.642 0 0 0 31
56.6311 40.642 0 0 0 31
57.4647 40.642 0 0 0 31
58.2983 40.642 0 0 0 31
59.1319 40.642 0 0 0 31
59.9656 40.642 0 0 0 31
60.7992 40.642 0 0 0 31
61.6328 40.642 0 0 0 31
62.4664 40.642 0 0 0 31
63.3 40.642 0 0 0 31
64.1336 40.642 0 0 0 31
64.9673 40.642 0 0 0 31
65.8009 40.642 0.578276 0.0113489 1 31
66.6345 40.642 0.578283 0.011348 1 31
67.4681 40.642 0.578293 0.0113463 1 31
68.3017 40.642 0.578306 0.011345 1 31
69.1354 40.642 0.578323 0.0113439 1 31
69.969 40.642 0.578342 0.0113431 1 31
70.8026 40.642 0.578361 0.0113438 1 31
71.6362 40.642 0.578387 0.0113446 1 31
72.4698 40.642 0.578419 0.0113474 1 31
73.3035 40.642 0.578456 0.0113515 1 31
74.1371 40.642 0.578498 0.0113571 1 31
74.9707 40.642 0.578544 0.011361 1 31
75.8043 40.642 0.578592 0.0113671 1 31
76.6379 40.642 0.578647 0.0113718 1 31
77.4716 40.642 0.578705 0.0113755 1 31
78.3052 40.642 0.578765 0.0113814 1 31
79.1388 40.642 0.578825 0.0114081 1 31
79.9724 40.642 0.578889 0.0114281 1 31
80.806 40.642 0.57896 0.0114449 1 31
81.6397 40.642 0.579037 0.0114591 1 31
82.4733 40.642 0.579117 0.0114726 1 31
83.3069 40.642 0.579201 0.0114858 1 31
84.1405 40.642 0.579285 0.0115006 1 31
84.9741 40.642 0.579372 0.0115158 1 31
85.8077 40.642 0.579459 0.0115314 1 31
86.6414 40.642 0.57955 0.0115493 1 31
87.475 40.642 0.579642 0.0115706 1 31
88.3086 40.642 0.579736 0.0115933 1 31
89.1422 40.642 0.579824 0.0116183 1 31
89.9758 40.642 0.579917 0.0116337 1 31
90.8095 40.642 0.58001 0.0116483 1 31
91.6431 40.642 0.580106 0.0116641 1 31
92.4767 40.642 0.580205 0.0116801 1 31
93.3103 40.642 0.580305 0.0116974 1 31
94.1439 40.642 0.580405 0.0117153 1 31
94.9776 40.642 0.580502 0.0117345 1 31
95.8112 40.642 0.580599 0.0117564 1 31
96.6448 40.642 0.580696 0.0117796 1 31
97.4784 40.642 0.580792 0.0118049 1 31
98.312 40.642 0.580884 0.0118304 1 31
99.1457 40.642 0.580972 0.0118511 1 31
99.9793 40.642 0.581059 0.0118717 1 31
100.813 40.642 0.581147 0.0118924 1 31
101.647 40.642 0.581235 0.0119131 1 31
102.48 40.642 0 0 0 31
103.314 40.642 0 0 0 31
104.147 40.642 0 0 0 31
104.981 40.642 0 0 0 31
105.815 40.642 0 0 0 31
106.648 40.642 0 0 0 31
107.482 40.642 0 0 0 31
108.315 40.642 0 0 0 31
109.149 40.642 0 0 0 31
109.983 40.642 0 0 0 31
110.816 40.642 0 0 0 31
-102.59 39.8083 0 0 0 31
-101.757 39.8083 0 0 0 31
-100.923 39.8083 0 0 0 31
-100.089 39.8083 0 0 0 31
-99.2557 39.8083 0 0 0 31
-98.4221 39.8083 0 0 0 31
-97.5885 39.8083 0 0 0 31
-96.7549 39.8083 0 0 0 31
-95.9212 39.8083 0 0 0 31
-95.0876 39.8083 0 0 0 31
-94.254 39.8083 0 0 0 31
-93.4204 39.8083 0 0 0 31
-92.5868 39.8083 0 0 0 31
-91.7531 39.8083 0 0 0 31
-90.9195 39.8083 0 0 0 31
-90.0859 39.8083 0 0 0 31
-89.2523 39.8083 0 0 0 31
-88.4187 39.8083 0 0 0 31
-87.585 39.8083 0 0 0 31
-86.7514 39.8083 0 0 0 31
-85.9178 39.8083 0 0 0 31
-85.0842 39.8083 0 0 0 31
-84.2506 39.8083 0 0 0 31
-83.4169 39.8083 0 0 0 31
-82.5833 39.8083 0 0 0 31
-81.7497 39.8083 0 0 0 31
-80.9161 39.8083 0 0 0 31
-80.0825 39.8083 0 0 0 31
-79.2489 39.8083 0 0 0 31
-78.4152 39.8083 0 0 0 31
-77.5816 39.8083 0 0 0 31
-76.748 39.8083 0 0 0 31
-75.9144 39.8083 0 0 0 31
-75.0808 39.8083 0 0 0 31
-74.2471 39.8083 0 0 0 31
-73.4135 39.8083 0 0 0 31
-72.5799 39.8083 0 0 0 31
-71.7463 39.8083 0 0 0 31
-70.9127 39.8083 0 0 0 31
-70.079 39.8083 0 0 0 31
-69.2454 39.8083 0 0 0 31
-68.4118 39.8083 0 0 0 31
-67.5782 39.8083 0 0 0 31
-66.7446 39.8083 0 0 0 31
-65.9109 39.8083 0 0 0 31
-65.0773 39.8083 0 0 0 31
-64.2437 39.8083 0 0 0 31
-63.4101 39.8083 0 0 0 31
-62.5765 39.8083 0 0 0 31
-61.7428 39.8083 0 0 0 31
-60.9092 39.8083 0 0 0 31
-60.0756 39.8083 0 0 0 31
-59.242 39.8083 0 0 0 31
-58.4084 39.8083 0 0 0 31
-57.5748 39.8083 0 0 0 31
-56.7411 39.8083 0 0 0 31
-55.9075 39.8083 0 0 0 31
-55.0739 39.8083 0 0 0 31
-54.2403 39.8083 0 0 0 31
-53.4067 39.8083 0 0 0 31
-52.573 39.8083 0 0 0 31
-51.7394 39.8083 0 0 0 31
-50.9058 39.8083 0 0 0 31
-50.0722 39.8083 0 0 0 31
-49.2386 39.8083 0 0 0 31
-48.4049 39.8083 0 0 0 31
-47.5713 39.8083 0 0 0 31
-46.7377 39.8083 0 0 0 31
-45.9041 39.8083 0 0 0 31
-45.0705 39.8083 0 0 0 31
-44.2368 39.8083 0 0 0 31
-43.4032 39.8083 0 0 0 31
-42.5696 39.8083 0 0 0 31
-41.736 39.8083 0 0 0 31
-40.9024 39.8083 0 0 0 31
-40.0688 39.8083 0 0 0 31
-39.2351 39.8083 0 0 0 31
-38.4015 39.8083 0 0 0 31
-37.5679 39.8083 0 0 0 31
-36.7343 39.8083 0 0 0 31
-35.9007 39.8083 0 0 0 31
-35.067 39.8083 0 0 0 31
-34.2334 39.8083 0 0 0 31
-33.3998 39.8083 0 0 0 31
-32.5662 39.8083 0 0 0 31
-31.7326 39.8083 0 0 0 31
-30.8989 39.8083 0 0 0 31
-30.0653 39.8083 0 0 0 31
-29.2317 39.8083 0 0 0 31
-28.3981 39.8083 0 0 0 31
-27.5645 39.8083 0 0 0 31
-26.7308 39.8083 0 0 0 31
-25.8972 39.8083 0 0 0 31
-25.0636 39.8083 0 0 0 31
-24.23 39.8083 0 0 0 31
-23.3964 39.8083 0 0 0 31
-22.5627 39.8083 0 0 0 31
-21.7291 39.8083 0 0 0 31
-20.8955 39.8083 0 0 0 31
-20.0619 39.8083 0 0 0 31
-19.2283 39.8083 0 0 0 31
-18.3947 39.8083 0 0 0 31
-17.561 39.8083 0 0 0 31
-16.7274 39.8083 0 0 0 31
-15.8938 39.8083 0 0 0 31
-15.0602 39.8083 0 0 0 31
-14.2266 39.8083 0 0 0 31
-13.3929 39.8083 0 0 0 31
-12.5593 39.8083 0 0 0 31
-11.7257 39.8083 0 0 0 31
-10.8921 39.8083 0 0 0 31
-10.0585 39.8083 0 0 0 31
-9.22484 39.8083 0 0 0 31
-8.39122 39.8083 0 0 0 31
-7.5576 39.8083 0 0 0 31
-6.72398 39.8083 0 0 0 31
-5.89036 39.8083 0 0 0 31
-5.05674 39.8083 0 0 0 31
-4.22312 39.8083 0 0 0 31
-3.38951 39.8083 0 0 0 31
-2.55589 39.8083 0 0 0 31
-1.72227 39.8083 0 0 0 31
-0.888648 39.8083 0 0 0 31
-0.0550288 39.8083 0 0 0 31
0.77859 39.8083 0 0 0 31
1.61221 39.8083 0 0 0 31
2.44583 39.8083 0 0 0 31
3.27945 39.8083 0 0 0 31
4.11307 39.8083 0 0 0 31
4.94669 39.8083 0 0 0 31
5.78031 39.8083 0 0 0 31
6.61392 39.8083 0 0 0 31
7.44754 39.8083 0 0 0 31
8.28116 39.8083 0 0 0 31
9.11478 39.8083 0 0 0 31
9.9484 39.8083 0 0 0 31
10.782 39.8083 0 0 0 31
11.6156 39.8083 0 0 0 31
12.4493 39.8083 0 0 0 31
13.2829 39.8083 0 0 0 31
14.1165 39.8083 0 0 0 31
14.9501 39.8083 0 0 0 31
15.7837 39.8083 0 0 0 31
16.6174 39.8083 0 0 0 31
17.451 39.8083 0 0 0 31
18.2846 39.8083 0 0 0 31
19.1182 39.8083 0 0 0 31
19.9518 39.8083 0.57686 0.0119688 1 31
20.7855 39.8083 0.576909 0.0119463 1 31
21.6191 39.8083 0.576959 0.0119264 1 31
22.4527 39.8083 0.577008 0.0119082 1 31
23.2863 39.8083 0.577054 0.0118921 1 31
24.1199 39.8083 0.577099 0.011876 1 31
24.9535 39.8083 0.577144 0.0118586 1 31
25.7872 39.8083 0.577187 0.0118413 1 31
26.6208 39.8083 0.57723 0.0118215 1 31
27.4544 39.8083 0.577274 0.0118025 1 31
28.288 39.8083 0.577318 0.0117854 1 31
29.1216 39.8083 0.577358 0.0117669 1 31
29.9553 39.8083 0.577399 0.0117479 1 31
30.7889 39.8083 0.57744 0.0117325 1 31
31.6225 39.8083 0.577481 0.0117174 1 31
32.4561 39.8083 0.577523 0.0117042 1 31
33.2897 39.8083 0.577567 0.011687 1 31
34.1234 39.8083 0.577608 0.0116693 1 31
34.957 39.8083 0.577649 0.0116527 1 31
35.7906 39.8083 0.577686 0.0116368 1 31
36.6242 39.8083 0.57772 0.0116232 1 31
37.4578 39.8083 0.577755 0.01161 1 31
38.2915 39.8083 0.577791 0.0115972 1 31
39.1251 39.8083 0.577828 0.0115866 1 31
39.9587 39.8083 0.577864 0.0115771 1 31
40.7923 39.8083 0.577899 0.0115701 1 31
41.6259 39.8083 0.577934 0.0115658 1 31
42.4596 39.8083 0.577966 0.0115608 1 31
43.2932 39.8083 0.577995 0.0115553 1 31
44.1268 39.8083 0.578023 0.0115492 1 31
44.9604 39.8083 0.57805 0.0115431 1 31
45.794 39.8083 0.578069 0.011537 1 31
46.6276 39.8083 0.578085 0.0115311 1 31
47.4613 39.8083 0.578097 0.011525 1 31
48.2949 39.8083 0.578108 0.011518 1 31
49.1285 39.8083 0.57812 0.0115101 1 31
49.9621 39.8083 0.578134 0.0114997 1 31
50.7957 39.8083 0.578148 0.0114916 1 31
51.6294 39.8083 0.57816 0.0114858 1 31
52.463 39.8083 0.57817 0.0114813 1 31
53.2966 39.8083 0.578181 0.011455 1 31
54.1302 39.8083 0.57819 0.0114386 1 31
54.9638 39.8083 0.5782 0.0114285 1 31
55.7975 39.8083 0.578208 0.0114221 1 31
56.6311 39.8083 0.578216 0.0114162 1 31
57.4647 39.8083 0.57822 0.0114106 1 31
58.2983 39.8083 0.578223 0.0114028 1 31
59.1319 39.8083 0.578224 0.0113951 1 31
59.9656 39.8083 0.578227 0.0113891 1 31
60.7992 39.8083 0.578229 0.0113832 1 31
61.6328 39.8083 0.578234 0.0113769 1 31
62.4664 39.8083 0.578242 0.011371 1 31
63.3 39.8083 0.578249 0.0113665 1 31
64.1336 39.8083 0.578254 0.0113633 1 31
64.9673 39.8083 0.57826 0.0113622 1 31
65.8009 39.8083 0.578267 0.011361 1 31
66.6345 39.8083 0.578275 0.0113598 1 31
67.4681 39.8083 0.578285 0.0113578 1 31
68.3017 39.8083 0.578298 0.0113563 1 31
69.1354 39.8083 0.578315 0.0113549 1 31
69.969 39.8083 0.578333 0.0113539 1 31
70.8026 39.8083 0.578353 0.0113542 1 31
71.6362 39.8083 0.578379 0.0113546 1 31
72.4698 39.8083 0.57841 0.011357 1 31
73.3035 39.8083 0.578447 0.0113605 1 31
74.1371 39.8083 0.578489 0.0113655 1 31
74.9707 39.8083 0.578535 0.011369 1 31
75.8043 39.8083 0.578583 0.0113745 1 31
76.6379 39.8083 0.578637 0.0113788 1 31
77.4716 39.8083 0.578694 0.0113822 1 31
78.3052 39.8083 0.578755 0.0113876 1 31
79.1388 39.8083 0.578814 0.0114127 1 31
79.9724 39.8083 0.578878 0.0114316 1 31
80.806 39.8083 0.578949 0.0114473 1 31
81.6397 39.8083 0.579025 0.0114608 1 31
82.4733 39.8083 0.579104 0.0114734 1 31
83.3069 39.8083 0.579188 0.0114861 1 31
84.1405 39.8083 0.579272 0.0115003 1 31
84.9741 39.8083 0.579358 0.0115149 1 31
85.8077 39.8083 0.579445 0.01153 1 31
86.6414 39.8083 0.579535 0.0115473 1 31
87.475 39.8083 0.579626 0.0115679 1 31
88.3086 39.8083 0.57972 0.0115899 1 31
89.1422 39.8083 0.579808 0.011614 1 31
89.9758 39.8083 0.579899 0.0116292 1 31
90.8095 39.8083 0.579992 0.0116436 1 31
91.6431 39.8083 0.580088 0.0116592 1 31
92.4767 39.8083 0.580186 0.011675 1 31
93.3103 39.8083 0.580286 0.0116921 1 31
94.1439 39.8083 0.580386 0.0117098 1 31
94.9776 39.8083 0.580483 0.0117287 1 31
95.8112 39.8083 0.580579 0.0117503 1 31
96.6448 39.8083 0.580676 0.0117733 1 31
97.4784 39.8083 0.580771 0.0117982 1 31
98.312 39.8083 0.580863 0.0118234 1 31
99.1457 39.8083 0.58095 0.0118441 1 31
99.9793 39.8083 0.581038 0.0118647 1 31
100.813 39.8083 0.581126 0.0118854 1 31
101.647 39.8083 0.581214 0.0119061 1 31
102.48 39.8083 0 0 0 31
103.314 39.8083 0 0 0 31
104.147 39.8083 0 0 0 31
104.981 39.8083 0 0 0 31
105.815 39.8083 0 0 0 31
106.648 39.8083 0 0 0 31
107.482 39.8083 0 0 0 31
108.315 39.8083 0 0 0 31
109.149 39.8083 0 0 0 31
109.983 39.8083 0 0 0 31
110.816 39.8083 0 0 0 31
-102.59 38.9747 0 0 0 31
-101.757 38.9747 0 0 0 31
-100.923 38.9747 0 0 0 31
-100.089 38.9747 0 0 0 31
-99.2557 38.9747 0 0 0 31
-98.4221 38.9747 0 0 0 31
-97.5885 38.9747 0 0 0 31
-96.7549 38.9747 0 0 0 31
-95.9212 38.9747 0 0 0 31
-95.0876 38.9747 0 0 0 31
-94.254 38.9747 0 0 0 31
-93.4204 38.9747 0 0 0 31
-92.5868 38.9747 0 0 0 31
-91.7531 38.9747 0 0 0 31
-90.9195 38.9747 0 0 0 31
-90.0859 38.9747 0 0 0 31
-89.2523 38.9747 0 0 0 31
-88.4187 38.9747 0 0 0 31
-87.585 38.9747 0 0 0 31
-86.7514 38.9747 0 0 0 31
-85.9178 38.9747 0 0 0 31
-85.0842 38.9747 0 0 0 31
-84.2506 38.9747 0 0 0 31
-83.4169 38.9747 0 0 0 31
-82.5833 38.9747 0 0 0 31
-81.7497 38.9747 0 0 0 31
-80.9161 38.9747 0 0 0 31
-80.0825 38.9747 0 0 0 31
-79.2489 38.9747 0 0 0 31
-78.4152 38.9747 0 0 0 31
-77.5816 38.9747 0 0 0 31
-76.748 38.9747 0 0 0 31
-75.9144 38.9747 0 0 0 31
-75.0808 38.9747 0 0 0 31
-74.2471 38.9747 0 0 0 31
-73.4135 38.9747 0 0 0 31
-72.5799 38.9747 0 0 0 31
-71.7463 38.9747 0 0 0 31
-70.9127 38.9747 0 0 0 31
-70.079 38.9747 0 0 0 31
-69.2454 38.9747 0 0 0 31
-68.4118 38.9747 0 0 0 31
-67.5782 38.9747 0 0 0 31
-66.7446 38.9747 0 0 0 31
-65.9109 38.9747 0 0 0 31
-65.0773 38.9747 0 0 0 31
-64.2437 38.9747 0 0 0 31
-63.4101 38.9747 0 0 0 31
-62.5765 38.9747 0 0 0 31
-61.7428 38.9747 0 0 0 31
-60.9092 38.9747 0 0 0 31
-60.0756 38.9747 0 0 0 31
-59.242 38.9747 0 0 0 31
-58.4084 38.9747 0 0 0 31
-57.5748 38.9747 0 0 0 31
-56.7411 38.9747 0 0 0 31
-55.9075 38.9747 0 0 0 31
-55.0739 38.9747 0 0 0 31
-54.2403 38.9747 0 0 0 31
-53.4067 38.9747 0 0 0 31
-52.573 38.9747 0 0 0 31
-51.7394 38.9747 0 0 0 31
-50.9058 38.9747 0 0 0 31
-50.0722 38.9747 0 0 0 31
-49.2386 38.9747 0 0 0 31
-48.4049 38.9747 0 0 0 31
-47.5713 38.9747 0 0 0 31
-46.7377 38.9747 0 0 0 31
-45.9041 38.9747 0 0 0 31
-45.0705 38.9747 0 0 0 31
-44.2368 38.9747 0 0 0 31