TITLE = "15hz_0001"
VARIABLES = "x [mm]", "y [mm]", "Velocity u [m/s]", "Velocity v [m/s]", "isValid", "filter length"
ZONE T="Frame 0", I=257, J=150, F=POINT
STRANDID=1, SOLUTIONTIME=0.19999551
-102.59 42.3092 0 0 0 31
-101.757 42.3092 0 0 0 31
-100.923 42.3092 0 0 0 31
-100.089 42.3092 0 0 0 31
-99.2557 42.3092 0 0 0 31
-98.4221 42.3092 0 0 0 31
-97.5885 42.3092 0 0 0 31
-96.7549 42.3092 0 0 0 31
-95.9212 42.3092 0 0 0 31
-95.0876 42.3092 0 0 0 31
-94.254 42.3092 0 0 0 31
-93.4204 42.3092 0 0 0 31
-92.5868 42.3092 0 0 0 31
-91.7531 42.3092 0 0 0 31
-90.9195 42.3092 0 0 0 31
-90.0859 42.3092 0 0 0 31
-89.2523 42.3092 0 0 0 31
-88.4187 42.3092 0 0 0 31
-87.585 42.3092 0 0 0 31
-86.7514 42.3092 0 0 0 31
-85.9178 42.3092 0 0 0 31
-85.0842 42.3092 0 0 0 31
-84.2506 42.3092 0 0 0 31
-83.4169 42.3092 0 0 0 31
-82.5833 42.3092 0 0 0 31
-81.7497 42.3092 0 0 0 31
-80.9161 42.3092 0 0 0 31
-80.0825 42.3092 0 0 0 31
-79.2489 42.3092 0 0 0 31
-78.4152 42.3092 0 0 0 31
-77.5816 42.3092 0 0 0 31
-76.748 42.3092 0 0 0 31
-75.9144 42.3092 0 0 0 31
-75.0808 42.3092 0 0 0 31
-74.2471 42.3092 0 0 0 31
-73.4135 42.3092 0 0 0 31
-72.5799 42.3092 0 0 0 31
-71.7463 42.3092 0 0 0 31
-70.9127 42.3092 0 0 0 31
-70.079 42.3092 0 0 0 31
-69.2454 42.3092 0 0 0 31
-68.4118 42.3092 0 0 0 31
-67.5782 42.3092 0 0 0 31
-66.7446 42.3092 0 0 0 31
-65.9109 42.3092 0 0 0 31
-65.0773 42.3092 0 0 0 31
-64.2437 42.3092 0 0 0 31
-63.4101 42.3092 0 0 0 31
-62.5765 42.3092 0 0 0 31
-61.7428 42.3092 0 0 0 31
-60.9092 42.3092 0 0 0 31
-60.0756 42.3092 0 0 0 31
-59.242 42.3092 0 0 0 31
-58.4084 42.3092 0 0 0 31
-57.5748 42.3092 0 0 0 31
-56.7411 42.3092 0 0 0 31
-55.9075 42.3092 0 0 0 31
-55.0739 42.3092 0 0 0 31
-54.2403 42.3092 0 0 0 31
-53.4067 42.3092 0 0 0 31
-52.573 42.3092 0 0 0 31
-51.7394 42.3092 0 0 0 31
-50.9058 42.3092 0 0 0 31
-50.0722 42.3092 0 0 0 31
-49.2386 42.3092 0 0 0 31
-48.4049 42.3092 0 0 0 31
-47.5713 42.3092 0 0 0 31
-46.7377 42.3092 0 0 0 31
-45.9041 42.3092 0 0 0 31
-45.0705 42.3092 0 0 0 31
-44.2368 42.3092 0 0 0 31
-43.4032 42.3092 0 0 0 31
-42.5696 42.3092 0 0 0 31
-41.736 42.3092 0 0 0 31
-40.9024 42.3092 0 0 0 31
-40.0688 42.3092 0 0 0 31
-39.2351 42.3092 0 0 0 31
-38.4015 42.3092 0 0 0 31
-37.5679 42.3092 0 0 0 31
-36.7343 42.3092 0 0 0 31
-35.9007 42.3092 0 0 0 31
-35.067 42.3092 0 0 0 31
-34.2334 42.3092 0 0 0 31
-33.3998 42.3092 0 0 0 31
-32.5662 42.3092 0 0 0 31
-31.7326 42.3092 0 0 0 31
-30.8989 42.3092 0 0 0 31
-30.0653 42.3092 0 0 0 31
-29.2317 42.3092 0 0 0 31
-28.3981 42.3092 0 0 0 31
-27.5645 42.3092 0 0 0 31
-26.7308 42.3092 0 0 0 31
-25.8972 42.3092 0 0 0 31
-25.0636 42.3092 0 0 0 31
-24.23 42.3092 0 0 0 31
-23.3964 42.3092 0 0 0 31
-22.5627 42.3092 0 0 0 31
-21.7291 42.3092 0 0 0 31
-20.8955 42.3092 0 0 0 31
-20.0619 42.3092 0 0 0 31
-19.2283 42.3092 0 0 0 31
-18.3947 42.3092 0 0 0 31
-17.561 42.3092 0 0 0 31
-16.7274 42.3092 0 0 0 31
-15.8938 42.3092 0 0 0 31
-15.0602 42.3092 0 0 0 31
-14.2266 42.3092 0 0 0 31
-13.3929 42.3092 0 0 0 31
-12.5593 42.3092 0 0 0 31
-11.7257 42.3092 0 0 0 31
-10.8921 42.3092 0 0 0 31
-10.0585 42.3092 0 0 0 31
-9.22484 42.3092 0 0 0 31
-8.39122 42.3092 0 0 0 31
-7.5576 42.3092 0 0 0 31
-6.72398 42.3092 0 0 0 31
-5.89036 42.3092 0 0 0 31
-5.05674 42.3092 0 0 0 31
-4.22312 42.3092 0 0 0 31
-3.38951 42.3092 0 0 0 31
-2.55589 42.3092 0 0 0 31
-1.72227 42.3092 0 0 0 31
-0.888648 42.3092 0 0 0 31
-0.0550288 42.3092 0 0 0 31
0.77859 42.3092 0 0 0 31
1.61221 42.3092 0 0 0 31
2.44583 42.3092 0 0 0 31
3.27945 42.3092 0 0 0 31
4.11307 42.3092 0 0 0 31
4.94669 42.3092 0 0 0 31
5.78031 42.3092 0 0 0 31
6.61392 42.3092 0 0 0 31
7.44754 42.3092 0 0 0 31
8.28116 42.3092 0 0 0 31
9.11478 42.3092 0 0 0 31
9.9484 42.3092 0 0 0 31
10.782 42.3092 0 0 0 31
11.6156 42.3092 0 0 0 31
12.4493 42.3092 0 0 0 31
13.2829 42.3092 0 0 0 31
14.1165 42.3092 0 0 0 31
14.9501 42.3092 0 0 0 31
15.7837 42.3092 0 0 0 31
16.6174 42.3092 0 0 0 31
17.451 42.3092 0 0 0 31
18.2846 42.3092 0 0 0 31
19.1182 42.3092 0 0 0 31
19.9518 42.3092 0 0 0 31
20.7855 42.3092 0 0 0 31
21.6191 42.3092 0 0 0 31
22.4527 42.3092 0 0 0 31
23.2863 42.3092 0 0 0 31
24.1199 42.3092 0 0 0 31
24.9535 42.3092 0 0 0 31
25.7872 42.3092 0 0 0 31
26.6208 42.3092 0 0 0 31
27.4544 42.3092 0 0 0 31
28.288 42.3092 0 0 0 31
29.1216 42.3092 0 0 0 31
29.9553 42.3092 0 0 0 31
30.7889 42.3092 0 0 0 31
31.6225 42.3092 0 0 0 31
32.4561 42.3092 0 0 0 31
33.2897 42.3092 0 0 0 31
34.1234 42.3092 0 0 0 31
34.957 42.3092 0 0 0 31
35.7906 42.3092 0 0 0 31
36.6242 42.3092 0 0 0 31
37.4578 42.3092 0 0 0 31
38.2915 42.3092 0 0 0 31
39.1251 42.3092 0 0 0 31
39.9587 42.3092 0 0 0 31
40.7923 42.3092 0 0 0 31
41.6259 42.3092 0 0 0 31
42.4596 42.3092 0 0 0 31
43.2932 42.3092 0 0 0 31
44.1268 42.3092 0 0 0 31
44.9604 42.3092 0 0 0 31
45.794 42.3092 0 0 0 31
46.6276 42.3092 0 0 0 31
47.4613 42.3092 0 0 0 31
48.2949 42.3092 0 0 0 31
49.1285 42.3092 0 0 0 31
49.9621 42.3092 0 0 0 31
50.7957 42.3092 0 0 0 31
51.6294 42.3092 0 0 0 31
52.463 42.3092 0 0 0 31
53.2966 42.3092 0 0 0 31
54.1302 42.3092 0 0 0 31
54.9638 42.3092 0 0 0 31
55.7975 42.3092 0 0 0 31
56.6311 42.3092 0 0 0 31
57.4647 42.3092 0 0 0 31
58.2983 42.3092 0 0 0 31
59.1319 42.3092 0 0 0 31
59.9656 42.3092 0 0 0 31
60.7992 42.3092 0 0 0 31
61.6328 42.3092 0 0 0 31
62.4664 42.3092 0 0 0 31
63.3 42.3092 0 0 0 31
64.1336 42.3092 0 0 0 31
64.9673 42.3092 0 0 0 31
65.8009 42.3092 0 0 0 31
66.6345 42.3092 0 0 0 31
67.4681 42.3092 0 0 0 31
68.3017 42.3092 0 0 0 31
69.1354 42.3092 0 0 0 31
69.969 42.3092 0 0 0 31
70.8026 42.3092 0 0 0 31
71.6362 42.3092 0 0 0 31
72.4698 42.3092 0 0 0 31
73.3035 42.3092 0 0 0 31
74.1371 42.3092 0 0 0 31
74.9707 42.3092 0 0 0 31
75.8043 42.3092 0 0 0 31
76.6379 42.3092 0 0 0 31
77.4716 42.3092 0 0 0 31
78.3052 42.3092 0 0 0 31
79.1388 42.3092 0 0 0 31
79.9724 42.3092 0 0 0 31
80.806 42.3092 0 0 0 31
81.6397 42.3092 0 0 0 31
82.4733 42.3092 0 0 0 31
83.3069 42.3092 0 0 0 31
84.1405 42.3092 0 0 0 31
84.9741 42.3092 0 0 0 31
85.8077 42.3092 0 0 0 31
86.6414 42.3092 0 0 0 31
87.475 42.3092 0 0 0 31
88.3086 42.3092 0 0 0 31
89.1422 42.3092 0 0 0 31
89.9758 42.3092 0 0 0 31
90.8095 42.3092 0 0 0 31
91.6431 42.3092 0 0 0 31
92.4767 42.3092 0 0 0 31
93.3103 42.3092 0 0 0 31
94.1439 42.3092 0 0 0 31
94.9776 42.3092 0 0 0 31
95.8112 42.3092 0 0 0 31
96.6448 42.3092 0 0 0 31
97.4784 42.3092 0 0 0 31
98.312 42.3092 0 0 0 31
99.1457 42.3092 0 0 0 31
99.9793 42.3092 0 0 0 31
100.813 42.3092 0 0 0 31
101.647 42.3092 0 0 0 31
102.48 42.3092 0 0 0 31
103.314 42.3092 0 0 0 31
104.147 42.3092 0 0 0 31
104.981 42.3092 0 0 0 31
105.815 42.3092 0 0 0 31
106.648 42.3092 0 0 0 31
107.482 42.3092 0 0 0 31
108.315 42.3092 0 0 0 31
109.149 42.3092 0 0 0 31
109.983 42.3092 0 0 0 31
110.816 42.3092 0 0 0 31
-102.59 41.4756 0 0 0 31
-101.757 41.4756 0 0 0 31
-100.923 41.4756 0 0 0 31
-100.089 41.4756 0 0 0 31
-99.2557 41.4756 0 0 0 31
-98.4221 41.4756 0 0 0 31
-97.5885 41.4756 0 0 0 31
-96.7549 41.4756 0 0 0 31
-95.9212 41.4756 0 0 0 31
-95.0876 41.4756 0 0 0 31
-94.254 41.4756 0 0 0 31
-93.4204 41.4756 0 0 0 31
-92.5868 41.4756 0 0 0 31
-91.7531 41.4756 0 0 0 31
-90.9195 41.4756 0 0 0 31
-90.0859 41.4756 0 0 0 31
-89.2523 41.4756 0 0 0 31
-88.4187 41.4756 0 0 0 31
-87.585 41.4756 0 0 0 31
-86.7514 41.4756 0 0 0 31
-85.9178 41.4756 0 0 0 31
-85.0842 41.4756 0 0 0 31
-84.2506 41.4756 0 0 0 31
-83.4169 41.4756 0 0 0 31
-82.5833 41.4756 0 0 0 31
-81.7497 41.4756 0 0 0 31
-80.9161 41.4756 0 0 0 31
-80.0825 41.4756 0 0 0 31
-79.2489 41.4756 0 0 0 31
-78.4152 41.4756 0 0 0 31
-77.5816 41.4756 0 0 0 31
-76.748 41.4756 0 0 0 31
-75.9144 41.4756 0 0 0 31
-75.0808 41.4756 0 0 0 31
-74.2471 41.4756 0 0 0 31
-73.4135 41.4756 0 0 0 31
-72.5799 41.4756 0 0 0 31
-71.7463 41.4756 0 0 0 31
-70.9127 41.4756 0 0 0 31
-70.079 41.4756 0 0 0 31
-69.2454 41.4756 0 0 0 31
-68.4118 41.4756 0 0 0 31
-67.5782 41.4756 0 0 0 31
-66.7446 41.4756 0 0 0 31
-65.9109 41.4756 0 0 0 31
-65.0773 41.4756 0 0 0 31
-64.2437 41.4756 0 0 0 31
-63.4101 41.4756 0 0 0 31
-62.5765 41.4756 0 0 0 31
-61.7428 41.4756 0 0 0 31
-60.9092 41.4756 0 0 0 31
-60.0756 41.4756 0 0 0 31
-59.242 41.4756 0 0 0 31
-58.4084 41.4756 0 0 0 31
-57.5748 41.4756 0 0 0 31
-56.7411 41.4756 0 0 0 31
-55.9075 41.4756 0 0 0 31
-55.0739 41.4756 0 0 0 31
-54.2403 41.4756 0 0 0 31
-53.4067 41.4756 0 0 0 31
-52.573 41.4756 0 0 0 31
-51.7394 41.4756 0 0 0 31
-50.9058 41.4756 0 0 0 31
-50.0722 41.4756 0 0 0 31
-49.2386 41.4756 0 0 0 31
-48.4049 41.4756 0 0 0 31
-47.5713 41.4756 0 0 0 31
-46.7377 41.4756 0 0 0 31
-45.9041 41.4756 0 0 0 31
-45.0705 41.4756 0 0 0 31
-44.2368 41.4756 0 0 0 31
-43.4032 41.4756 0 0 0 31
-42.5696 41.4756 0 0 0 31
-41.736 41.4756 0 0 0 31
-40.9024 41.4756 0 0 0 31
-40.0688 41.4756 0 0 0 31
-39.2351 41.4756 0 0 0 31
-38.4015 41.4756 0 0 0 31
-37.5679 41.4756 0 0 0 31
-36.7343 41.4756 0 0 0 31
-35.9007 41.4756 0 0 0 31
-35.067 41.4756 0 0 0 31
-34.2334 41.4756 0 0 0 31
-33.3998 41.4756 0 0 0 31
-32.5662 41.4756 0 0 0 31
-31.7326 41.4756 0 0 0 31
-30.8989 41.4756 0 0 0 31
-30.0653 41.4756 0 0 0 31
-29.2317 41.4756 0 0 0 31
-28.3981 41.4756 0 0 0 31
-27.5645 41.4756 0 0 0 31
-26.7308 41.4756 0 0 0 31
-25.8972 41.4756 0 0 0 31
-25.0636 41.4756 0 0 0 31
-24.23 41.4756 0 0 0 31
-23.3964 41.4756 0 0 0 31
-22.5627 41.4756 0 0 0 31
-21.7291 41.4756 0 0 0 31
-20.8955 41.4756 0 0 0 31
-20.0619 41.4756 0 0 0 31
-19.2283 41.4756 0 0 0 31
-18.3947 41.4756 0 0 0 31
-17.561 41.4756 0 0 0 31
-16.7274 41.4756 0 0 0 31
-15.8938 41.4756 0 0 0 31
-15.0602 41.4756 0 0 0 31
-14.2266 41.4756 0 0 0 31
-13.3929 41.4756 0 0 0 31
-12.5593 41.4756 0 0 0 31
-11.7257 41.4756 0 0 0 31
-10.8921 41.4756 0 0 0 31
-10.0585 41.4756 0 0 0 31
-9.22484 41.4756 0 0 0 31
-8.39122 41.4756 0 0 0 31
-7.5576 41.4756 0 0 0 31
-6.72398 41.4756 0 0 0 31
-5.89036 41.4756 0 0 0 31
-5.05674 41.4756 0 0 0 31
-4.22312 41.4756 0 0 0 31
-3.38951 41.4756 0 0 0 31
-2.55589 41.4756 0 0 0 31
-1.72227 41.4756 0 0 0 31
-0.888648 41.4756 0 0 0 31
-0.0550288 41.4756 0 0 0 31
0.77859 41.4756 0 0 0 31
1.61221 41.4756 0 0 0 31
2.44583 41.4756 0 0 0 31
3.27945 41.4756 0 0 0 31
4.11307 41.4756 0 0 0 31
4.94669 41.4756 0 0 0 31
5.78031 41.4756 0 0 0 31
6.61392 41.4756 0 0 0 31
7.44754 41.4756 0 0 0 31
8.28116 41.4756 0 0 0 31
9.11478 41.4756 0 0 0 31
9.9484 41.4756 0 0 0 31
10.782 41.4756 0 0 0 31
11.6156 41.4756 0 0 0 31
12.4493 41.4756 0 0 0 31
13.2829 41.4756 0 0 0 31
14.1165 41.4756 0 0 0 31
14.9501 41.4756 0 0 0 31
15.7837 41.4756 0 0 0 31
16.6174 41.4756 0 0 0 31
17.451 41.4756 0 0 0 31
18.2846 41.4756 0 0 0 31
19.1182 41.4756 0 0 0 31
19.9518 41.4756 0 0 0 31
20.7855 41.4756 0 0 0 31
21.6191 41.4756 0 0 0 31
22.4527 41.4756 0 0 0 31
23.2863 41.4756 0 0 0 31
24.1199 41.4756 0 0 0 31
24.9535 41.4756 0 0 0 31
25.7872 41.4756 0 0 0 31
26.6208 41.4756 0 0 0 31
27.4544 41.4756 0 0 0 31
28.288 41.4756 0 0 0 31
29.1216 41.4756 0 0 0 31
29.9553 41.4756 0 0 0 31
30.7889 41.4756 0 0 0 31
31.6225 41.4756 0 0 0 31
32.4561 41.4756 0 0 0 31
33.2897 41.4756 0 0 0 31
34.1234 41.4756 0 0 0 31
34.957 41.4756 0 0 0 31
35.7906 41.4756 0 0 0 31
36.6242 41.4756 0 0 0 31
37.4578 41.4756 0 0 0 31
38.2915 41.4756 0 0 0 31
39.1251 41.4756 0 0 0 31
39.9587 41.4756 0 0 0 31
40.7923 41.4756 0 0 0 31
41.6259 41.4756 0 0 0 31
42.4596 41.4756 0 0 0 31
43.2932 41.4756 0 0 0 31
44.1268 41.4756 0 0 0 31
44.9604 41.4756 0 0 0 31
45.794 41.4756 0 0 0 31
46.6276 41.4756 0 0 0 31
47.4613 41.4756 0 0 0 31
48.2949 41.4756 0 0 0 31
49.1285 41.4756 0 0 0 31
49.9621 41.4756 0 0 0 31
50.7957 41.4756 0 0 0 31
51.6294 41.4756 0 0 0 31
52.463 41.4756 0 0 0 31
53.2966 41.4756 0 0 0 31
54.1302 41.4756 0 0 0 31
54.9638 41.4756 0 0 0 31
55.7975 41.4756 0 0 0 31
56.6311 41.4756 0 0 0 31
57.4647 41.4756 0 0 0 31
58.2983 41.4756 0 0 0 31
59.1319 41.4756 0 0 0 31
59.9656 41.4756 0 0 0 31
60.7992 41.4756 0 0 0 31
61.6328 41.4756 0 0 0 31
62.4664 41.4756 0 0 0 31
63.3 41.4756 0 0 0 31
64.1336 41.4756 0 0 0 31
64.9673 41.4756 0 0 0 31
65.8009 41.4756 0 0 0 31
66.6345 41.4756 0 0 0 31
67.4681 41.4756 0 0 0 31
68.3017 41.4756 0 0 0 31
69.1354 41.4756 0 0 0 31
69.969 41.4756 0 0 0 31
70.8026 41.4756 0 0 0 31
71.6362 41.4756 0 0 0 31
72.4698 41.4756 0 0 0 31
73.3035 41.4756 0 0 0 31
74.1371 41.4756 0 0 0 31
74.9707 41.4756 0 0 0 31
75.8043 41.4756 0 0 0 31
76.6379 41.4756 0 0 0 31
77.4716 41.4756 0 0 0 31
78.3052 41.4756 0 0 0 31
79.1388 41.4756 0 0 0 31
79.9724 41.4756 0 0 0 31
80.806 41.4756 0 0 0 31
81.6397 41.4756 0 0 0 31
82.4733 41.4756 0 0 0 31
83.3069 41.4756 0 0 0 31
84.1405 41.4756 0 0 0 31
84.9741 41.4756 0 0 0 31
85.8077 41.4756 0 0 0 31
86.6414 41.4756 0 0 0 31
87.475 41.4756 0 0 0 31
88.3086 41.4756 0 0 0 31
89.1422 41.4756 0 0 0 31
89.9758 41.4756 0 0 0 31
90.8095 41.4756 0 0 0 31
91.6431 41.4756 0 0 0 31
92.4767 41.4756 0 0 0 31
93.3103 41.4756 0 0 0 31
94.1439 41.4756 0 0 0 31
94.9776 41.4756 0 0 0 31
95.8112 41.4756 0 0 0 31
96.6448 41.4756 0 0 0 31
97.4784 41.4756 0 0 0 31
98.312 41.4756 0 0 0 31
99.1457 41.4756 0 0 0 31
99.9793 41.4756 0 0 0 31
100.813 41.4756 0 0 0 31
101.647 41.4756 0 0 0 31
102.48 41.4756 0 0 0 31
103.314 41.4756 0 0 0 31
104.147 41.4756 0 0 0 31
104.981 41.4756 0 0 0 31
105.815 41.4756 0 0 0 31
106.648 41.4756 0 0 0 31
107.482 41.4756 0 0 0 31
108.315 41.4756 0 0 0 31
109.149 41.4756 0 0 0 31
109.983 41.4756 0 0 0 31
110.816 41.4756 0 0 0 31
-102.59 40.642 0 0 0 31
-101.757 40.642 0 0 0 31
-100.923 40.642 0 0 0 31
-100.089 40.642 0 0 0 31
-99.2557 40.642 0 0 0 31
-98.4221 40.642 0 0 0 31
-97.5885 40.642 0 0 0 31
-96.7549 40.642 0 0 0 31
-95.9212 40.642 0 0 0 31
-95.0876 40.642 0 0 0 31
-94.254 40.642 0 0 0 31
-93.4204 40.642 0 0 0 31
-92.5868 40.642 0 0 0 31
-91.7531 40.642 0 0 0 31
-90.9195 40.642 0 0 0 31
-90.0859 40.642 0 0 0 31
-89.2523 40.642 0 0 0 31
-88.4187 40.642 0 0 0 31
-87.585 40.642 0 0 0 31
-86.7514 40.642 0 0 0 31
-85.9178 40.642 0 0 0 31
-85.0842 40.642 0 0 0 31
-84.2506 40.642 0 0 0 31
-83.4169 40.642 0 0 0 31
-82.5833 40.642 0 0 0 31
-81.7497 40.642 0 0 0 31
-80.9161 40.642 0 0 0 31
-80.0825 40.642 0 0 0 31
-79.2489 40.642 0 0 0 31
-78.4152 40.642 0 0 0 31
-77.5816 40.642 0 0 0 31
-76.748 40.642 0 0 0 31
-75.9144 40.642 0 0 0 31
-75.0808 40.642 0 0 0 31
-74.2471 40.642 0 0 0 31
-73.4135 40.642 0 0 0 31
-72.5799 40.642 0 0 0 31
-71.7463 40.642 0 0 0 31
-70.9127 40.642 0 0 0 31
-70.079 40.642 0 0 0 31
-69.2454 40.642 0 0 0 31
-68.4118 40.642 0 0 0 31
-67.5782 40.642 0 0 0 31
-66.7446 40.642 0 0 0 31
-65.9109 40.642 0 0 0 31
-65.0773 40.642 0 0 0 31
-64.2437 40.642 0 0 0 31
-63.4101 40.642 0 0 0 31
-62.5765 40.642 0 0 0 31
-61.7428 40.642 0 0 0 31
-60.9092 40.642 0 0 0 31
-60.0756 40.642 0 0 0 31
-59.242 40.642 0 0 0 31
-58.4084 40.642 0 0 0 31
-57.5748 40.642 0 0 0 31
-56.7411 40.642 0 0 0 31
-55.9075 40.642 0 0 0 31
-55.0739 40.642 0 0 0 31
-54.2403 40.642 0 0 0 31
-53.4067 40.642 0 0 0 31
-52.573 40.642 0 0 0 31
-51.7394 40.642 0 0 0 31
-50.9058 40.642 0 0 0 31
-50.0722 40.642 0 0 0 31
-49.2386 40.642 0 0 0 31
-48.4049 40.642 0 0 0 31
-47.5713 40.642 0 0 0 31
-46.7377 40.642 0 0 0 31
-45.9041 40.642 0 0 0 31
-45.0705 40.642 0 0 0 31
-44.2368 40.642 0 0 0 31
-43.4032 40.642 0 0 0 31
-42.5696 40.642 0 0 0 31
-41.736 40.642 0 0 0 31
-40.9024 40.642 0 0 0 31
-40.0688 40.642 0 0 0 31
-39.2351 40.642 0 0 0 31
-38.4015 40.642 0 0 0 31
-37.5679 40.642 0 0 0 31
-36.7343 40.642 0 0 0 31
-35.9007 40.642 0 0 0 31
-35.067 40.642 0 0 0 31
-34.2334 40.642 0 0 0 31
-33.3998 40.642 0 0 0 31
-32.5662 40.642 0 0 0 31
-31.7326 40.642 0 0 0 31
-30.8989 40.642 0 0 0 31
-30.0653 40.642 0 0 0 31
-29.2317 40.642 0 0 0 31
-28.3981 40.642 0 0 0 31
-27.5645 40.642 0 0 0 31
-26.7308 40.642 0 0 0 31
-25.8972 40.642 0 0 0 31
-25.0636 40.642 0 0 0 31
-24.23 40.642 0 0 0 31
-23.3964 40.642 0 0 0 31
-22.5627 40.642 0 0 0 31
-21.7291 40.642 0 0 0 31
-20.8955 40.642 0 0 0 31
-20.0619 40.642 0 0 0 31
-19.2283 40.642 0 0 0 31
-18.3947 40.642 0 0 0 31
-17.561 40.642 0 0 0 31
-16.7274 40.642 0 0 0 31
-15.8938 40.642 0 0 0 31
-15.0602 40.642 0 0 0 31
-14.2266 40.642 0 0 0 31
-13.3929 40.642 0 0 0 31
-12.5593 40.642 0 0 0 31
-11.7257 40.642 0 0 0 31
-10.8921 40.642 0 0 0 31
-10.0585 40.642 0 0 0 31
-9.22484 40.642 0 0 0 31
-8.39122 40.642 0 0 0 31
-7.5576 40.642 0 0 0 31
-6.72398 40.642 0 0 0 31
-5.89036 40.642 0 0 0 31
-5.05674 40.642 0 0 0 31
-4.22312 40.642 0 0 0 31
-3.38951 40.642 0 0 0 31
-2.55589 40.642 0 0 0 31
-1.72227 40.642 0 0 0 31
-0.888648 40.642 0 0 0 31
-0.0550288 40.642 0 0 0 31
0.77859 40.642 0 0 0 31
1.61221 40.642 0 0 0 31
2.44583 40.642 0 0 0 31
3.27945 40.642 0 0 0 31
4.11307 40.642 0 0 0 31
4.94669 40.642 0 0 0 31
5.78031 40.642 0 0 0 31
6.61392 40.642 0 0 0 31
7.44754 40.642 0 0 0 31
8.28116 40.642 0 0 0 31
9.11478 40.642 0 0 0 31
9.9484 40.642 0 0 0 31
10.782 40.642 0 0 0 31
11.6156 40.642 0 0 0 31
12.4493 40.642 0 0 0 31
13.2829 40.642 0 0 0 31
14.1165 40.642 0 0 0 31
14.9501 40.642 0 0 0 31
15.7837 40.642 0 0 0 31
16.6174 40.642 0 0 0 31
17.451 40.642 0 0 0 31
18.2846 40.642 0 0 0 31
19.1182 40.642 0 0 0 31
19.9518 40.642 0 0 0 31
20.7855 40.642 0 0 0 31
21.6191 40.642 0 0 0 31
22.4527 40.642 0 0 0 31
23.2863 40.642 0 0 0 31
24.1199 40.642 0 0 0 31
24.9535 40.642 0 0 0 31
25.7872 40.642 0 0 0 31
26.6208 40.642 0 0 0 31
27.4544 40.642 0 0 0 31
28.288 40.642 0 0 0 31
29.1216 40.642 0 0 0 31
29.9553 40.642 0 0 0 31
30.7889 40.642 0 0 0 31
31.6225 40.642 0 0 0 31
32.4561 40.642 0 0 0 31
33.2897 40.642 0 0 0 31
34.1234 40.642 0 0 0 31
34.957 40.642 0 0 0 31
35.7906 40.642 0 0 0 31
36.6242 40.642 0 0 0 31
37.4578 40.642 0 0 0 31
38.2915 40.642 0 0 0 31
39.1251 40.642 0 0 0 31
39.9587 40.642 0 0 0 31
40.7923 40.642 0 0 0 31
41.6259 40.642 0 0 0 31
42.4596 40.642 0 0 0 31
43.2932 40.642 0 0 0 31
44.1268 40.642 0 0 0 31
44.9604 40.642 0 0 0 31
45.794 40.642 0 0 0 31
46.6276 40.642 0 0 0 31
47.4613 40.642 0 0 0 31
48.2949 40.642 0 0 0 31
49.1285 40.642 0 0 0 31
49.9621 40.642 0 0 0 31
50.7957 40.642 0 0 0 31
51.6294 40.642 0 0 0 31
52.463 40.642 0 0 0 31
53.2966 40.642 0 0 0 31
54.1302 40.642 0 0 0 31
54.9638 40.642 0 0 0 31
55.7975 40.642 0 0 0 31
56.6311 40.642 0 0 0 31
57.4647 40.642 0 0 0 31
58.2983 40.642 0 0 0 31
59.1319 40.642 0 0 0 31
59.9656 40.642 0 0 0 31
60.7992 40.642 0 0 0 31
61.6328 40.642 0 0 0 31
62.4664 40.642 0 0 0 31
63.3 40.642 0 0 0 31
64.1336 40.642 0 0 0 31
64.9673 40.642 0 0 0 31
65.8009 40.642 0.732187 0.0127532 1 31
66.6345 40.642 0.732202 0.0127602 1 31
67.4681 40.642 0.732217 0.0127682 1 31
68.3017 40.642 0.732231 0.0127762 1 31
69.1354 40.642 0.73225 0.0127862 1 31
69.969 40.642 0.73227 0.0127974 1 31
70.8026 40.642 0.732296 0.0128076 1 31
71.6362 40.642 0.732327 0.0128175 1 31
72.4698 40.642 0.732363 0.0128269 1 31
73.3035 40.642 0.732406 0.012839 1 31
74.1371 40.642 0.732455 0.01285 1 31
74.9707 40.642 0.732512 0.0128618 1 31
75.8043 40.642 0.732575 0.0128751 1 31
76.6379 40.642 0.732644 0.0128901 1 31
77.4716 40.642 0.732717 0.0129082 1 31
78.3052 40.642 0.732796 0.0129278 1 31
79.1388 40.642 0.73288 0.0129607 1 31
79.9724 40.642 0.732968 0.0129858 1 31
80.806 40.642 0.73306 0.0130082 1 31
81.6397 40.642 0.73316 0.0130302 1 31
82.4733 40.642 0.733264 0.0130553 1 31
83.3069 40.642 0.733371 0.0130797 1 31
84.1405 40.642 0.733478 0.0131038 1 31
84.9741 40.642 0.733587 0.0131304 1 31
85.8077 40.642 0.733695 0.0131578 1 31
86.6414 40.642 0.733804 0.0131881 1 31
87.475 40.642 0.733915 0.0132215 1 31
88.3086 40.642 0.734025 0.0132577 1 31
89.1422 40.642 0.734131 0.0132816 1 31
89.9758 40.642 0.734255 0.0133029 1 31
90.8095 40.642 0.734372 0.013326 1 31
91.6431 40.642 0.73449 0.0133491 1 31
92.4767 40.642 0.73461 0.0133741 1 31
93.3103 40.642 0.734732 0.0134012 1 31
94.1439 40.642 0.734856 0.013429 1 31
94.9776 40.642 0.734978 0.0134565 1 31
95.8112 40.642 0.735099 0.0134871 1 31
96.6448 40.642 0.735217 0.0135202 1 31
97.4784 40.642 0.735332 0.013555 1 31
98.312 40.642 0.735444 0.0135925 1 31
99.1457 40.642 0.73555 0.0136209 1 31
99.9793 40.642 0.735656 0.0136493 1 31
100.813 40.642 0.735762 0.0136777 1 31
101.647 40.642 0 0 0 31
102.48 40.642 0 0 0 31
103.314 40.642 0 0 0 31
104.147 40.642 0 0 0 31
104.981 40.642 0 0 0 31
105.815 40.642 0 0 0 31
106.648 40.642 0 0 0 31
107.482 40.642 0 0 0 31
108.315 40.642 0 0 0 31
109.149 40.642 0 0 0 31
109.983 40.642 0 0 0 31
110.816 40.642 0 0 0 31
-102.59 39.8083 0 0 0 31
-101.757 39.8083 0 0 0 31
-100.923 39.8083 0 0 0 31
-100.089 39.8083 0 0 0 31
-99.2557 39.8083 0 0 0 31
-98.4221 39.8083 0 0 0 31
-97.5885 39.8083 0 0 0 31
-96.7549 39.8083 0 0 0 31
-95.9212 39.8083 0 0 0 31
-95.0876 39.8083 0 0 0 31
-94.254 39.8083 0 0 0 31
-93.4204 39.8083 0 0 0 31
-92.5868 39.8083 0 0 0 31
-91.7531 39.8083 0 0 0 31
-90.9195 39.8083 0 0 0 31
-90.0859 39.8083 0 0 0 31
-89.2523 39.8083 0 0 0 31
-88.4187 39.8083 0 0 0 31
-87.585 39.8083 0 0 0 31
-86.7514 39.8083 0 0 0 31
-85.9178 39.8083 0 0 0 31
-85.0842 39.8083 0 0 0 31
-84.2506 39.8083 0 0 0 31
-83.4169 39.8083 0 0 0 31
-82.5833 39.8083 0 0 0 31
-81.7497 39.8083 0 0 0 31
-80.9161 39.8083 0 0 0 31
-80.0825 39.8083 0 0 0 31
-79.2489 39.8083 0 0 0 31
-78.4152 39.8083 0 0 0 31
-77.5816 39.8083 0 0 0 31
-76.748 39.8083 0 0 0 31
-75.9144 39.8083 0 0 0 31
-75.0808 39.8083 0 0 0 31
-74.2471 39.8083 0 0 0 31
-73.4135 39.8083 0 0 0 31
-72.5799 39.8083 0 0 0 31
-71.7463 39.8083 0 0 0 31
-70.9127 39.8083 0 0 0 31
-70.079 39.8083 0 0 0 31
-69.2454 39.8083 0 0 0 31
-68.4118 39.8083 0 0 0 31
-67.5782 39.8083 0 0 0 31
-66.7446 39.8083 0 0 0 31
-65.9109 39.8083 0 0 0 31
-65.0773 39.8083 0 0 0 31
-64.2437 39.8083 0 0 0 31
-63.4101 39.8083 0 0 0 31
-62.5765 39.8083 0 0 0 31
-61.7428 39.8083 0 0 0 31
-60.9092 39.8083 0 0 0 31
-60.0756 39.8083 0 0 0 31
-59.242 39.8083 0 0 0 31
-58.4084 39.8083 0 0 0 31
-57.5748 39.8083 0 0 0 31
-56.7411 39.8083 0 0 0 31
-55.9075 39.8083 0 0 0 31
-55.0739 39.8083 0 0 0 31
-54.2403 39.8083 0 0 0 31
-53.4067 39.8083 0 0 0 31
-52.573 39.8083 0 0 0 31
-51.7394 39.8083 0 0 0 31
-50.9058 39.8083 0 0 0 31
-50.0722 39.8083 0 0 0 31
-49.2386 39.8083 0 0 0 31
-48.4049 39.8083 0 0 0 31
-47.5713 39.8083 0 0 0 31
-46.7377 39.8083 0 0 0 31
-45.9041 39.8083 0 0 0 31
-45.0705 39.8083 0 0 0 31
-44.2368 39.8083 0 0 0 31
-43.4032 39.8083 0 0 0 31
-42.5696 39.8083 0 0 0 31
-41.736 39.8083 0 0 0 31
-40.9024 39.8083 0 0 0 31
-40.0688 39.8083 0 0 0 31
-39.2351 39.8083 0 0 0 31
-38.4015 39.8083 0 0 0 31
-37.5679 39.8083 0 0 0 31
-36.7343 39.8083 0 0 0 31
-35.9007 39.8083 0 0 0 31
-35.067 39.8083 0 0 0 31
-34.2334 39.8083 0 0 0 31
-33.3998 39.8083 0 0 0 31
-32.5662 39.8083 0 0 0 31
-31.7326 39.8083 0 0 0 31
-30.8989 39.8083 0 0 0 31
-30.0653 39.8083 0 0 0 31
-29.2317 39.8083 0 0 0 31
-28.3981 39.8083 0 0 0 31
-27.5645 39.8083 0 0 0 31
-26.7308 39.8083 0 0 0 31
-25.8972 39.8083 0 0 0 31
-25.0636 39.8083 0 0 0 31
-24.23 39.8083 0 0 0 31
-23.3964 39.8083 0 0 0 31
-22.5627 39.8083 0 0 0 31
-21.7291 39.8083 0 0 0 31
-20.8955 39.8083 0 0 0 31
-20.0619 39.8083 0 0 0 31
-19.2283 39.8083 0 0 0 31
-18.3947 39.8083 0 0 0 31
-17.561 39.8083 0 0 0 31
-16.7274 39.8083 0 0 0 31
-15.8938 39.8083 0 0 0 31
-15.0602 39.8083 0 0 0 31
-14.2266 39.8083 0 0 0 31
-13.3929 39.8083 0 0 0 31
-12.5593 39.8083 0 0 0 31
-11.7257 39.8083 0 0 0 31
-10.8921 39.8083 0 0 0 31
-10.0585 39.8083 0 0 0 31
-9.22484 39.8083 0 0 0 31
-8.39122 39.8083 0 0 0 31
-7.5576 39.8083 0 0 0 31
-6.72398 39.8083 0 0 0 31
-5.89036 39.8083 0 0 0 31
-5.05674 39.8083 0 0 0 31
-4.22312 39.8083 0 0 0 31
-3.38951 39.8083 0 0 0 31
-2.55589 39.8083 0 0 0 31
-1.72227 39.8083 0 0 0 31
-0.888648 39.8083 0 0 0 31
-0.0550288 39.8083 0 0 0 31
0.77859 39.8083 0 0 0 31
1.61221 39.8083 0 0 0 31
2.44583 39.8083 0 0 0 31
3.27945 39.8083 0 0 0 31
4.11307 39.8083 0 0 0 31
4.94669 39.8083 0 0 0 31
5.78031 39.8083 0 0 0 31
6.61392 39.8083 0 0 0 31
7.44754 39.8083 0 0 0 31
8.28116 39.8083 0 0 0 31
9.11478 39.8083 0 0 0 31
9.9484 39.8083 0 0 0 31
10.782 39.8083 0 0 0 31
11.6156 39.8083 0 0 0 31
12.4493 39.8083 0 0 0 31
13.2829 39.8083 0 0 0 31
14.1165 39.8083 0 0 0 31
14.9501 39.8083 0 0 0 31
15.7837 39.8083 0 0 0 31
16.6174 39.8083 0 0 0 31
17.451 39.8083 0 0 0 31
18.2846 39.8083 0 0 0 31
19.1182 39.8083 0 0 0 31
19.9518 39.8083 0.730219 0.0130031 1 31
20.7855 39.8083 0.730288 0.0129884 1 31
21.6191 39.8083 0.730356 0.0129763 1 31
22.4527 39.8083 0.730422 0.0129641 1 31
23.2863 39.8083 0.730487 0.0129546 1 31
24.1199 39.8083 0.730551 0.0129463 1 31
24.9535 39.8083 0.730617 0.0129371 1 31
25.7872 39.8083 0.730679 0.0129295 1 31
26.6208 39.8083 0.730735 0.0129241 1 31
27.4544 39.8083 0.730788 0.0129188 1 31
28.288 39.8083 0.730844 0.0129111 1 31
29.1216 39.8083 0.730903 0.0129024 1 31
29.9553 39.8083 0.73096 0.0128932 1 31
30.7889 39.8083 0.731017 0.0128854 1 31
31.6225 39.8083 0.731075 0.0128791 1 31
32.4561 39.8083 0.731131 0.0128758 1 31
33.2897 39.8083 0.73119 0.0128589 1 31
34.1234 39.8083 0.731247 0.0128491 1 31
34.957 39.8083 0.731301 0.0128407 1 31
35.7906 39.8083 0.731353 0.012833 1 31
36.6242 39.8083 0.731403 0.0128271 1 31
37.4578 39.8083 0.731452 0.0128225 1 31
38.2915 39.8083 0.731502 0.0128195 1 31
39.1251 39.8083 0.731552 0.0128169 1 31
39.9587 39.8083 0.731601 0.0128139 1 31
40.7923 39.8083 0.731648 0.0128117 1 31
41.6259 39.8083 0.731696 0.012808 1 31
42.4596 39.8083 0.731742 0.0128049 1 31
43.2932 39.8083 0.731783 0.0128011 1 31
44.1268 39.8083 0.731823 0.0127959 1 31
44.9604 39.8083 0.731857 0.0127897 1 31
45.794 39.8083 0.731887 0.0127876 1 31
46.6276 39.8083 0.731914 0.0127871 1 31
47.4613 39.8083 0.731939 0.0127868 1 31
48.2949 39.8083 0.731962 0.0127879 1 31
49.1285 39.8083 0.731983 0.0127868 1 31
49.9621 39.8083 0.732001 0.0127838 1 31
50.7957 39.8083 0.732015 0.0127821 1 31
51.6294 39.8083 0.732031 0.012781 1 31
52.463 39.8083 0.73205 0.0127782 1 31
53.2966 39.8083 0.732063 0.0127609 1 31
54.1302 39.8083 0.732076 0.0127541 1 31
54.9638 39.8083 0.732084 0.0127531 1 31
55.7975 39.8083 0.73209 0.0127541 1 31
56.6311 39.8083 0.732096 0.0127533 1 31
57.4647 39.8083 0.7321 0.0127535 1 31
58.2983 39.8083 0.732106 0.012754 1 31
59.1319 39.8083 0.732108 0.0127534 1 31
59.9656 39.8083 0.732112 0.0127529 1 31
60.7992 39.8083 0.732118 0.012751 1 31
61.6328 39.8083 0.732124 0.0127503 1 31
62.4664 39.8083 0.732133 0.0127504 1 31
63.3 39.8083 0.732141 0.0127525 1 31
64.1336 39.8083 0.732148 0.0127559 1 31
64.9673 39.8083 0.732156 0.0127592 1 31
65.8009 39.8083 0.732167 0.0127648 1 31
66.6345 39.8083 0.732182 0.0127715 1 31
67.4681 39.8083 0.732197 0.0127791 1 31
68.3017 39.8083 0.732211 0.0127867 1 31
69.1354 39.8083 0.73223 0.0127962 1 31
69.969 39.8083 0.73225 0.0128069 1 31
70.8026 39.8083 0.732276 0.0128166 1 31
71.6362 39.8083 0.732307 0.0128261 1 31
72.4698 39.8083 0.732343 0.0128351 1 31
73.3035 39.8083 0.732386 0.0128466 1 31
74.1371 39.8083 0.732435 0.0128572 1 31
74.9707 39.8083 0.732491 0.0128684 1 31
75.8043 39.8083 0.732554 0.0128812 1 31
76.6379 39.8083 0.732622 0.0128956 1 31
77.4716 39.8083 0.732694 0.0129129 1 31
78.3052 39.8083 0.732772 0.0129317 1 31
79.1388 39.8083 0.732856 0.0129632 1 31
79.9724 39.8083 0.732942 0.0129873 1 31
80.806 39.8083 0.733034 0.0130088 1 31
81.6397 39.8083 0.733133 0.01303 1 31
82.4733 39.8083 0.733236 0.0130542 1 31
83.3069 39.8083 0.733342 0.0130778 1 31
84.1405 39.8083 0.733448 0.0131012 1 31
84.9741 39.8083 0.733557 0.0131271 1 31
85.8077 39.8083 0.733663 0.0131537 1 31
86.6414 39.8083 0.733772 0.0131832 1 31
87.475 39.8083 0.733882 0.0132156 1 31
88.3086 39.8083 0.733992 0.0132508 1 31
89.1422 39.8083 0.734098 0.0132744 1 31
89.9758 39.8083 0.73422 0.0132955 1 31
90.8095 39.8083 0.734336 0.0133183 1 31
91.6431 39.8083 0.734454 0.0133411 1 31
92.4767 39.8083 0.734573 0.0133658 1 31
93.3103 39.8083 0.734694 0.0133926 1 31
94.1439 39.8083 0.734818 0.01342 1 31
94.9776 39.8083 0.73494 0.0134472 1 31
95.8112 39.8083 0.73506 0.0134774 1 31
96.6448 39.8083 0.735177 0.01351 1 31
97.4784 39.8083 0.735292 0.0135444 1 31
98.312 39.8083 0.735403 0.0135814 1 31
99.1457 39.8083 0.735509 0.0136098 1 31
99.9793 39.8083 0.735615 0.0136382 1 31
100.813 39.8083 0.735722 0.0136666 1 31
101.647 39.8083 0 0 0 31
102.48 39.8083 0 0 0 31
103.314 39.8083 0 0 0 31
104.147 39.8083 0 0 0 31
104.981 39.8083 0 0 0 31
105.815 39.8083 0 0 0 31
106.648 39.8083 0 0 0 31
107.482 39.8083 0 0 0 31
108.315 39.8083 0 0 0 31
109.149 39.8083 0 0 0 31
109.983 39.8083 0 0 0 31
110.816 39.8083 0 0 0 31
-102.59 38.9747 0 0 0 31
-101.757 38.9747 0 0 0 31
-100.923 38.9747 0 0 0 31
-100.089 38.9747 0 0 0 31
-99.2557 38.9747 0 0 0 31
-98.4221 38.9747 0 0 0 31
-97.5885 38.9747 0 0 0 31
-96.7549 38.9747 0 0 0 31
-95.9212 38.9747 0 0 0 31
-95.0876 38.9747 0 0 0 31
-94.254 38.9747 0 0 0 31
-93.4204 38.9747 0 0 0 31
-92.5868 38.9747 0 0 0 31
-91.7531 38.9747 0 0 0 31
-90.9195 38.9747 0 0 0 31
-90.0859 38.9747 0 0 0 31
-89.2523 38.9747 0 0 0 31
-88.4187 38.9747 0 0 0 31
-87.585 38.9747 0 0 0 31
-86.7514 38.9747 0 0 0 31
-85.9178 38.9747 0 0 0 31
-85.0842 38.9747 0 0 0 31
-84.2506 38.9747 0 0 0 31
-83.4169 38.9747 0 0 0 31
-82.5833 38.9747 0 0 0 31
-81.7497 38.9747 0 0 0 31
-80.9161 38.9747 0 0 0 31
-80.0825 38.9747 0 0 0 31
-79.2489 38.9747 0 0 0 31
-78.4152 38.9747 0 0 0 31
-77.5816 38.9747 0 0 0 31
-76.748 38.9747 0 0 0 31
-75.9144 38.9747 0 0 0 31
-75.0808 38.9747 0 0 0 31
-74.2471 38.9747 0 0 0 31
-73.4135 38.9747 0 0 0 31
-72.5799 38.9747 0 0 0 31
-71.7463 38.9747 0 0 0 31
-70.9127 38.9747 0 0 0 31
-70.079 38.9747 0 0 0 31
-69.2454 38.9747 0 0 0 31
-68.4118 38.9747 0 0 0 31
-67.5782 38.9747 0 0 0 31
-66.7446 38.9747 0 0 0 31
-65.9109 38.9747 0 0 0 31
-65.0773 38.9747 0 0 0 31
-64.2437 38.9747 0 0 0 31
-63.4101 38.9747 0 0 0 31
-62.5765 38.9747 0 0 0 31
-61.7428 38.9747 0 0 0 31
-60.9092 38.9747 0 0 0 31
-60.0756 38.9747 0 0 0 31
-59.242 38.9747 0 0 0 31
-58.4084 38.9747 0 0 0 31
-57.5748 38.9747 0 0 0 31
-56.7411 38.9747 0 0 0 31
-55.9075 38.9747 0 0 0 31
-55.0739 38.9747 0 0 0 31
-54.2403 38.9747 0 0 0 31
-53.4067 38.9747 0 0 0 31
-52.573 38.9747 0 0 0 31
-51.7394 38.9747 0 0 0 31
-50.9058 38.9747 0 0 0 31
-50.0722 38.9747 0 0 0 31
-49.2386 38.9747 0 0 0 31
-48.4049 38.9747 0 0 0 31
-47.5713 38.9747 0 0 0 31
-46.7377 38.9747 0 0 0 31
-45.9041 38.9747 0 0 0 31
-45.0705 38.9747 0 0 0 31
-44.2368 38.9747 0 0 0 31
-43.4032 38.9747 0 0 0 31